   4   4   1   0
  0.5529751E+01  0.2062000E-09  0.2062000E-09  0.6007000E-09  0.2500000E-15
  1.000000000000000E-004
  CAR 
 C4                                      
     22.09109207    -17.53050815  101      3.84711993      1.00000000
    -17.531  0.0000E+00  0.0000E+00  0.0000E+00  0.0000E+00
    -17.134  0.0000E+00  0.0000E+00  0.0000E+00  0.0000E+00
    -16.738  0.0000E+00  0.0000E+00  0.0000E+00  0.0000E+00
    -16.342  0.0000E+00  0.0000E+00  0.0000E+00  0.0000E+00
    -15.946  0.3866E-07  0.3867E-07  0.1532E-07  0.1532E-07
    -15.549  0.9177E-03  0.9178E-03  0.3636E-03  0.3636E-03
    -15.153  0.3055E-02  0.3055E-02  0.1574E-02  0.1574E-02
    -14.757  0.3093E-02  0.3093E-02  0.2800E-02  0.2800E-02
    -14.361  0.3118E-02  0.3118E-02  0.4035E-02  0.4035E-02
    -13.965  0.3113E-02  0.3113E-02  0.5268E-02  0.5269E-02
    -13.568  0.3166E-02  0.3166E-02  0.6523E-02  0.6523E-02
    -13.172  0.3103E-02  0.3103E-02  0.7753E-02  0.7753E-02
    -12.776  0.3238E-02  0.3238E-02  0.9036E-02  0.9036E-02
    -12.380  0.3284E-02  0.3284E-02  0.1034E-01  0.1034E-01
    -11.983  0.3280E-02  0.3280E-02  0.1164E-01  0.1164E-01
    -11.587  0.3313E-02  0.3313E-02  0.1295E-01  0.1295E-01
    -11.191  0.3388E-02  0.3388E-02  0.1429E-01  0.1429E-01
    -10.795  0.3545E-02  0.3545E-02  0.1570E-01  0.1570E-01
    -10.399  0.4193E-02  0.4193E-02  0.1736E-01  0.1736E-01
    -10.002  0.3338E-02  0.3338E-02  0.1868E-01  0.1868E-01
     -9.606  0.1762E-02  0.1762E-02  0.1938E-01  0.1938E-01
     -9.210  0.2080E-02  0.2080E-02  0.2020E-01  0.2020E-01
     -8.814  0.3311E-02  0.3311E-02  0.2151E-01  0.2151E-01
     -8.418  0.4099E-02  0.4099E-02  0.2314E-01  0.2314E-01
     -8.021  0.3929E-02  0.3929E-02  0.2469E-01  0.2469E-01
     -7.625  0.3335E-02  0.3335E-02  0.2602E-01  0.2602E-01
     -7.229  0.3089E-02  0.3089E-02  0.2724E-01  0.2724E-01
     -6.833  0.2805E-02  0.2805E-02  0.2835E-01  0.2835E-01
     -6.436  0.3172E-02  0.3172E-02  0.2961E-01  0.2961E-01
     -6.040  0.3647E-02  0.3647E-02  0.3105E-01  0.3105E-01
     -5.644  0.3811E-02  0.3811E-02  0.3256E-01  0.3256E-01
     -5.248  0.3621E-02  0.3621E-02  0.3400E-01  0.3400E-01
     -4.852  0.3786E-02  0.3786E-02  0.3550E-01  0.3550E-01
     -4.455  0.4230E-02  0.4230E-02  0.3717E-01  0.3717E-01
     -4.059  0.4593E-02  0.4593E-02  0.3899E-01  0.3899E-01
     -3.663  0.5623E-02  0.5623E-02  0.4122E-01  0.4122E-01
     -3.267  0.6800E-02  0.6800E-02  0.4392E-01  0.4392E-01
     -2.871  0.8328E-02  0.8328E-02  0.4722E-01  0.4722E-01
     -2.474  0.1034E-01  0.1034E-01  0.5131E-01  0.5131E-01
     -2.078  0.9098E-02  0.9098E-02  0.5492E-01  0.5492E-01
     -1.682  0.7578E-02  0.7578E-02  0.5792E-01  0.5792E-01
     -1.286  0.6705E-02  0.6705E-02  0.6058E-01  0.6058E-01
     -0.889  0.6397E-02  0.6397E-02  0.6311E-01  0.6311E-01
     -0.493  0.5935E-02  0.5935E-02  0.6546E-01  0.6546E-01
     -0.097  0.5893E-02  0.5893E-02  0.6780E-01  0.6780E-01
      0.299  0.5564E-02  0.5564E-02  0.7000E-01  0.7000E-01
      0.695  0.5553E-02  0.5553E-02  0.7220E-01  0.7220E-01
      1.092  0.4347E-02  0.4347E-02  0.7392E-01  0.7392E-01
      1.488  0.4555E-02  0.4555E-02  0.7573E-01  0.7573E-01
      1.884  0.4339E-02  0.4339E-02  0.7745E-01  0.7745E-01
      2.280  0.2626E-02  0.2626E-02  0.7849E-01  0.7849E-01
      2.677  0.1764E-02  0.1764E-02  0.7919E-01  0.7919E-01
      3.073  0.1168E-02  0.1168E-02  0.7965E-01  0.7965E-01
      3.469  0.6571E-03  0.6571E-03  0.7991E-01  0.7991E-01
      3.865  0.2328E-03  0.2328E-03  0.8000E-01  0.8000E-01
      4.261  0.2409E-03  0.2410E-03  0.8010E-01  0.8010E-01
      4.658  0.7213E-03  0.7213E-03  0.8038E-01  0.8038E-01
      5.054  0.1440E-02  0.1440E-02  0.8095E-01  0.8095E-01
      5.450  0.3380E-02  0.3380E-02  0.8229E-01  0.8229E-01
      5.846  0.4920E-02  0.4920E-02  0.8424E-01  0.8424E-01
      6.242  0.3658E-02  0.3658E-02  0.8569E-01  0.8569E-01
      6.639  0.2971E-02  0.2971E-02  0.8687E-01  0.8687E-01
      7.035  0.2635E-02  0.2635E-02  0.8791E-01  0.8791E-01
      7.431  0.2387E-02  0.2387E-02  0.8886E-01  0.8886E-01
      7.827  0.2567E-02  0.2567E-02  0.8988E-01  0.8988E-01
      8.224  0.2744E-02  0.2744E-02  0.9096E-01  0.9096E-01
      8.620  0.2788E-02  0.2788E-02  0.9207E-01  0.9207E-01
      9.016  0.2800E-02  0.2800E-02  0.9318E-01  0.9318E-01
      9.412  0.2923E-02  0.2923E-02  0.9434E-01  0.9434E-01
      9.808  0.3080E-02  0.3080E-02  0.9556E-01  0.9556E-01
     10.205  0.3059E-02  0.3059E-02  0.9677E-01  0.9677E-01
     10.601  0.2997E-02  0.2997E-02  0.9796E-01  0.9796E-01
     10.997  0.3276E-02  0.3276E-02  0.9925E-01  0.9925E-01
     11.393  0.5501E-02  0.5501E-02  0.1014E+00  0.1014E+00
     11.789  0.8603E-02  0.8603E-02  0.1048E+00  0.1048E+00
     12.186  0.1013E-01  0.1013E-01  0.1089E+00  0.1089E+00
     12.582  0.1450E-01  0.1450E-01  0.1146E+00  0.1146E+00
     12.978  0.1005E-01  0.1005E-01  0.1186E+00  0.1186E+00
     13.374  0.8930E-02  0.8930E-02  0.1221E+00  0.1221E+00
     13.771  0.7979E-02  0.7979E-02  0.1253E+00  0.1253E+00
     14.167  0.8022E-02  0.8022E-02  0.1285E+00  0.1285E+00
     14.563  0.9671E-02  0.9671E-02  0.1323E+00  0.1323E+00
     14.959  0.9735E-02  0.9735E-02  0.1361E+00  0.1361E+00
     15.355  0.8567E-02  0.8567E-02  0.1395E+00  0.1395E+00
     15.752  0.6384E-02  0.6384E-02  0.1421E+00  0.1421E+00
     16.148  0.6655E-02  0.6655E-02  0.1447E+00  0.1447E+00
     16.544  0.6884E-02  0.6884E-02  0.1474E+00  0.1474E+00
     16.940  0.7391E-02  0.7391E-02  0.1504E+00  0.1504E+00
     17.337  0.7247E-02  0.7247E-02  0.1532E+00  0.1532E+00
     17.733  0.5381E-02  0.5381E-02  0.1554E+00  0.1554E+00
     18.129  0.4069E-02  0.4069E-02  0.1570E+00  0.1570E+00
     18.525  0.2821E-02  0.2821E-02  0.1581E+00  0.1581E+00
     18.921  0.2238E-02  0.2237E-02  0.1590E+00  0.1590E+00
     19.318  0.1306E-02  0.1306E-02  0.1595E+00  0.1595E+00
     19.714  0.8262E-03  0.8269E-03  0.1598E+00  0.1598E+00
     20.110  0.3352E-03  0.3359E-03  0.1600E+00  0.1600E+00
     20.506  0.9601E-04  0.9536E-04  0.1600E+00  0.1600E+00
     20.902  0.1014E-07  0.1013E-07  0.1600E+00  0.1600E+00
     21.299  0.0000E+00  0.0000E+00  0.1600E+00  0.1600E+00
     21.695  0.0000E+00  0.0000E+00  0.1600E+00  0.1600E+00
     22.091  0.0000E+00  0.0000E+00  0.1600E+00  0.1600E+00
     22.09109207    -17.53050815  101      3.84711993      1.00000000
    -17.531  0.0000E+00  0.0000E+00  0.0000E+00  0.0000E+00  0.0000E+00  0.0000E+00
    -17.134  0.0000E+00  0.0000E+00  0.0000E+00  0.0000E+00  0.0000E+00  0.0000E+00
    -16.738  0.0000E+00  0.0000E+00  0.0000E+00  0.0000E+00  0.0000E+00  0.0000E+00
    -16.342  0.0000E+00  0.0000E+00  0.0000E+00  0.0000E+00  0.0000E+00  0.0000E+00
    -15.946  0.5772E-06  0.5774E-06  0.6907E-09  0.6910E-09  0.0000E+00  0.0000E+00
    -15.549  0.1373E-01  0.1374E-01  0.7755E-04  0.7756E-04  0.0000E+00  0.0000E+00
    -15.153  0.4535E-01  0.4535E-01  0.9574E-03  0.9575E-03  0.0000E+00  0.0000E+00
    -14.757  0.4511E-01  0.4511E-01  0.2169E-02  0.2169E-02  0.0000E+00  0.0000E+00
    -14.361  0.4465E-01  0.4465E-01  0.3397E-02  0.3397E-02  0.0000E+00  0.0000E+00
    -13.965  0.4378E-01  0.4378E-01  0.4592E-02  0.4592E-02  0.0000E+00  0.0000E+00
    -13.568  0.4374E-01  0.4374E-01  0.5860E-02  0.5860E-02  0.0000E+00  0.0000E+00
    -13.172  0.4210E-01  0.4210E-01  0.6909E-02  0.6909E-02  0.0000E+00  0.0000E+00
    -12.776  0.4317E-01  0.4317E-01  0.8398E-02  0.8398E-02  0.0000E+00  0.0000E+00
    -12.380  0.4306E-01  0.4306E-01  0.9695E-02  0.9695E-02  0.0000E+00  0.0000E+00
    -11.983  0.4235E-01  0.4235E-01  0.1081E-01  0.1081E-01  0.0000E+00  0.0000E+00
    -11.587  0.4222E-01  0.4222E-01  0.1198E-01  0.1198E-01  0.0000E+00  0.0000E+00
    -11.191  0.4279E-01  0.4279E-01  0.1320E-01  0.1320E-01  0.0000E+00  0.0000E+00
    -10.795  0.4475E-01  0.4475E-01  0.1452E-01  0.1452E-01  0.0000E+00  0.0000E+00
    -10.399  0.5438E-01  0.5438E-01  0.1693E-01  0.1693E-01  0.0000E+00  0.0000E+00
    -10.002  0.4356E-01  0.4356E-01  0.1393E-01  0.1393E-01  0.0000E+00  0.0000E+00
     -9.606  0.2237E-01  0.2237E-01  0.8254E-02  0.8254E-02  0.0000E+00  0.0000E+00
     -9.210  0.2036E-01  0.2036E-01  0.1472E-01  0.1472E-01  0.0000E+00  0.0000E+00
     -8.814  0.2707E-01  0.2707E-01  0.2788E-01  0.2788E-01  0.0000E+00  0.0000E+00
     -8.418  0.3541E-01  0.3541E-01  0.3408E-01  0.3408E-01  0.0000E+00  0.0000E+00
     -8.021  0.3509E-01  0.3509E-01  0.3259E-01  0.3259E-01  0.0000E+00  0.0000E+00
     -7.625  0.2938E-01  0.2938E-01  0.2868E-01  0.2868E-01  0.0000E+00  0.0000E+00
     -7.229  0.2629E-01  0.2629E-01  0.2787E-01  0.2787E-01  0.0000E+00  0.0000E+00
     -6.833  0.2311E-01  0.2311E-01  0.2645E-01  0.2645E-01  0.0000E+00  0.0000E+00
     -6.436  0.2047E-01  0.2047E-01  0.3469E-01  0.3469E-01  0.0000E+00  0.0000E+00
     -6.040  0.2012E-01  0.2012E-01  0.4310E-01  0.4310E-01  0.0000E+00  0.0000E+00
     -5.644  0.1955E-01  0.1955E-01  0.4701E-01  0.4701E-01  0.0000E+00  0.0000E+00
     -5.248  0.1694E-01  0.1694E-01  0.4672E-01  0.4671E-01  0.0000E+00  0.0000E+00
     -4.852  0.1625E-01  0.1625E-01  0.5082E-01  0.5082E-01  0.0000E+00  0.0000E+00
     -4.455  0.1671E-01  0.1671E-01  0.5892E-01  0.5892E-01  0.0000E+00  0.0000E+00
     -4.059  0.1415E-01  0.1415E-01  0.6557E-01  0.6557E-01  0.0000E+00  0.0000E+00
     -3.663  0.1290E-01  0.1290E-01  0.7984E-01  0.7984E-01  0.0000E+00  0.0000E+00
     -3.267  0.1258E-01  0.1258E-01  0.9804E-01  0.9804E-01  0.0000E+00  0.0000E+00
     -2.871  0.1097E-01  0.1097E-01  0.1240E+00  0.1240E+00  0.0000E+00  0.0000E+00
     -2.474  0.8566E-02  0.8566E-02  0.1652E+00  0.1652E+00  0.0000E+00  0.0000E+00
     -2.078  0.6799E-02  0.6799E-02  0.1444E+00  0.1444E+00  0.0000E+00  0.0000E+00
     -1.682  0.5254E-02  0.5254E-02  0.1176E+00  0.1176E+00  0.0000E+00  0.0000E+00
     -1.286  0.3783E-02  0.3783E-02  0.1029E+00  0.1029E+00  0.0000E+00  0.0000E+00
     -0.889  0.3087E-02  0.3087E-02  0.9797E-01  0.9797E-01  0.0000E+00  0.0000E+00
     -0.493  0.2184E-02  0.2184E-02  0.9036E-01  0.9036E-01  0.0000E+00  0.0000E+00
     -0.097  0.1581E-02  0.1581E-02  0.9046E-01  0.9046E-01  0.0000E+00  0.0000E+00
      0.299  0.9089E-03  0.9089E-03  0.8465E-01  0.8465E-01  0.0000E+00  0.0000E+00
      0.695  0.4038E-03  0.4038E-03  0.8444E-01  0.8444E-01  0.0000E+00  0.0000E+00
      1.092  0.5599E-04  0.5599E-04  0.5843E-01  0.5843E-01  0.0000E+00  0.0000E+00
      1.488  0.2763E-04  0.2763E-04  0.5646E-01  0.5646E-01  0.0000E+00  0.0000E+00
      1.884  0.2298E-04  0.2298E-04  0.5357E-01  0.5357E-01  0.0000E+00  0.0000E+00
      2.280  0.1204E-04  0.1204E-04  0.3272E-01  0.3272E-01  0.0000E+00  0.0000E+00
      2.677  0.7191E-05  0.7191E-05  0.2216E-01  0.2216E-01  0.0000E+00  0.0000E+00
      3.073  0.4160E-05  0.4161E-05  0.1477E-01  0.1477E-01  0.0000E+00  0.0000E+00
      3.469  0.2052E-05  0.2052E-05  0.8299E-02  0.8299E-02  0.0000E+00  0.0000E+00
      3.865  0.5559E-06  0.5559E-06  0.2333E-02  0.2333E-02  0.0000E+00  0.0000E+00
      4.261  0.5097E-06  0.5097E-06  0.2686E-02  0.2686E-02  0.0000E+00  0.0000E+00
      4.658  0.1453E-05  0.1453E-05  0.9805E-02  0.9806E-02  0.0000E+00  0.0000E+00
      5.054  0.2484E-05  0.2484E-05  0.1938E-01  0.1938E-01  0.0000E+00  0.0000E+00
      5.450  0.5367E-05  0.5367E-05  0.4463E-01  0.4463E-01  0.0000E+00  0.0000E+00
      5.846  0.7217E-05  0.7217E-05  0.6006E-01  0.6006E-01  0.0000E+00  0.0000E+00
      6.242  0.3857E-05  0.3857E-05  0.4522E-01  0.4522E-01  0.0000E+00  0.0000E+00
      6.639  0.2455E-05  0.2455E-05  0.3793E-01  0.3793E-01  0.0000E+00  0.0000E+00
      7.035  0.1702E-05  0.1702E-05  0.3436E-01  0.3436E-01  0.0000E+00  0.0000E+00
      7.431  0.9157E-05  0.9158E-05  0.3164E-01  0.3164E-01  0.0000E+00  0.0000E+00
      7.827  0.4983E-03  0.4983E-03  0.3069E-01  0.3069E-01  0.0000E+00  0.0000E+00
      8.224  0.9711E-03  0.9711E-03  0.2936E-01  0.2936E-01  0.0000E+00  0.0000E+00
      8.620  0.1212E-02  0.1212E-02  0.2773E-01  0.2773E-01  0.0000E+00  0.0000E+00
      9.016  0.1338E-02  0.1338E-02  0.2643E-01  0.2643E-01  0.0000E+00  0.0000E+00
      9.412  0.1444E-02  0.1444E-02  0.2662E-01  0.2662E-01  0.0000E+00  0.0000E+00
      9.808  0.1529E-02  0.1529E-02  0.2715E-01  0.2715E-01  0.0000E+00  0.0000E+00
     10.205  0.1524E-02  0.1524E-02  0.2550E-01  0.2550E-01  0.0000E+00  0.0000E+00
     10.601  0.1436E-02  0.1436E-02  0.2457E-01  0.2457E-01  0.0000E+00  0.0000E+00
     10.997  0.1477E-02  0.1477E-02  0.2700E-01  0.2700E-01  0.0000E+00  0.0000E+00
     11.393  0.2111E-01  0.2111E-01  0.3362E-01  0.3362E-01  0.0000E+00  0.0000E+00
     11.789  0.4770E-01  0.4770E-01  0.4581E-01  0.4582E-01  0.0000E+00  0.0000E+00
     12.186  0.4754E-01  0.4754E-01  0.6472E-01  0.6473E-01  0.0000E+00  0.0000E+00
     12.582  0.4412E-01  0.4412E-01  0.1242E+00  0.1242E+00  0.0000E+00  0.0000E+00
     12.978  0.3117E-01  0.3117E-01  0.7911E-01  0.7911E-01  0.0000E+00  0.0000E+00
     13.374  0.2533E-01  0.2533E-01  0.6980E-01  0.6980E-01  0.0000E+00  0.0000E+00
     13.771  0.1826E-01  0.1826E-01  0.6362E-01  0.6362E-01  0.0000E+00  0.0000E+00
     14.167  0.1694E-01  0.1694E-01  0.6416E-01  0.6416E-01  0.0000E+00  0.0000E+00
     14.563  0.1516E-01  0.1516E-01  0.6735E-01  0.6735E-01  0.0000E+00  0.0000E+00
     14.959  0.1761E-01  0.1761E-01  0.6799E-01  0.6799E-01  0.0000E+00  0.0000E+00
     15.355  0.1652E-01  0.1652E-01  0.6225E-01  0.6225E-01  0.0000E+00  0.0000E+00
     15.752  0.1500E-01  0.1500E-01  0.4049E-01  0.4049E-01  0.0000E+00  0.0000E+00
     16.148  0.1888E-01  0.1888E-01  0.4677E-01  0.4677E-01  0.0000E+00  0.0000E+00
     16.544  0.1610E-01  0.1610E-01  0.4961E-01  0.4961E-01  0.0000E+00  0.0000E+00
     16.940  0.1351E-01  0.1351E-01  0.4526E-01  0.4526E-01  0.0000E+00  0.0000E+00
     17.337  0.1035E-01  0.1035E-01  0.5011E-01  0.5011E-01  0.0000E+00  0.0000E+00
     17.733  0.7080E-02  0.7080E-02  0.3527E-01  0.3527E-01  0.0000E+00  0.0000E+00
     18.129  0.5175E-02  0.5175E-02  0.3350E-01  0.3349E-01  0.0000E+00  0.0000E+00
     18.525  0.2984E-02  0.2985E-02  0.2279E-01  0.2279E-01  0.0000E+00  0.0000E+00
     18.921  0.2225E-02  0.2225E-02  0.2012E-01  0.2012E-01  0.0000E+00  0.0000E+00
     19.318  0.1256E-02  0.1256E-02  0.1102E-01  0.1096E-01  0.0000E+00  0.0000E+00
     19.714  0.6939E-03  0.6940E-03  0.7757E-02  0.7746E-02  0.0000E+00  0.0000E+00
     20.110  0.1500E-03  0.1500E-03  0.2719E-02  0.2739E-02  0.0000E+00  0.0000E+00
     20.506  0.4402E-04  0.4401E-04  0.1118E-02  0.1118E-02  0.0000E+00  0.0000E+00
     20.902  0.1291E-08  0.1289E-08  0.8434E-07  0.8432E-07  0.0000E+00  0.0000E+00
     21.299  0.0000E+00  0.0000E+00  0.0000E+00  0.0000E+00  0.0000E+00  0.0000E+00
     21.695  0.0000E+00  0.0000E+00  0.0000E+00  0.0000E+00  0.0000E+00  0.0000E+00
     22.091  0.0000E+00  0.0000E+00  0.0000E+00  0.0000E+00  0.0000E+00  0.0000E+00
     22.09109207    -17.53050815  101      3.84711993      1.00000000
    -17.531  0.0000E+00  0.0000E+00  0.0000E+00  0.0000E+00  0.0000E+00  0.0000E+00
    -17.134  0.0000E+00  0.0000E+00  0.0000E+00  0.0000E+00  0.0000E+00  0.0000E+00
    -16.738  0.0000E+00  0.0000E+00  0.0000E+00  0.0000E+00  0.0000E+00  0.0000E+00
    -16.342  0.0000E+00  0.0000E+00  0.0000E+00  0.0000E+00  0.0000E+00  0.0000E+00
    -15.946  0.5772E-06  0.5774E-06  0.6907E-09  0.6910E-09  0.0000E+00  0.0000E+00
    -15.549  0.1373E-01  0.1374E-01  0.7755E-04  0.7756E-04  0.0000E+00  0.0000E+00
    -15.153  0.4535E-01  0.4535E-01  0.9574E-03  0.9575E-03  0.0000E+00  0.0000E+00
    -14.757  0.4511E-01  0.4511E-01  0.2169E-02  0.2169E-02  0.0000E+00  0.0000E+00
    -14.361  0.4465E-01  0.4465E-01  0.3397E-02  0.3397E-02  0.0000E+00  0.0000E+00
    -13.965  0.4378E-01  0.4378E-01  0.4592E-02  0.4592E-02  0.0000E+00  0.0000E+00
    -13.568  0.4374E-01  0.4374E-01  0.5860E-02  0.5860E-02  0.0000E+00  0.0000E+00
    -13.172  0.4210E-01  0.4210E-01  0.6909E-02  0.6909E-02  0.0000E+00  0.0000E+00
    -12.776  0.4317E-01  0.4317E-01  0.8398E-02  0.8398E-02  0.0000E+00  0.0000E+00
    -12.380  0.4306E-01  0.4306E-01  0.9695E-02  0.9695E-02  0.0000E+00  0.0000E+00
    -11.983  0.4235E-01  0.4235E-01  0.1081E-01  0.1081E-01  0.0000E+00  0.0000E+00
    -11.587  0.4222E-01  0.4222E-01  0.1198E-01  0.1198E-01  0.0000E+00  0.0000E+00
    -11.191  0.4279E-01  0.4279E-01  0.1320E-01  0.1320E-01  0.0000E+00  0.0000E+00
    -10.795  0.4475E-01  0.4475E-01  0.1452E-01  0.1452E-01  0.0000E+00  0.0000E+00
    -10.399  0.5438E-01  0.5438E-01  0.1693E-01  0.1693E-01  0.0000E+00  0.0000E+00
    -10.002  0.4356E-01  0.4356E-01  0.1393E-01  0.1393E-01  0.0000E+00  0.0000E+00
     -9.606  0.2237E-01  0.2237E-01  0.8254E-02  0.8254E-02  0.0000E+00  0.0000E+00
     -9.210  0.2036E-01  0.2036E-01  0.1472E-01  0.1472E-01  0.0000E+00  0.0000E+00
     -8.814  0.2707E-01  0.2707E-01  0.2788E-01  0.2788E-01  0.0000E+00  0.0000E+00
     -8.418  0.3541E-01  0.3541E-01  0.3408E-01  0.3408E-01  0.0000E+00  0.0000E+00
     -8.021  0.3509E-01  0.3509E-01  0.3259E-01  0.3259E-01  0.0000E+00  0.0000E+00
     -7.625  0.2938E-01  0.2938E-01  0.2868E-01  0.2868E-01  0.0000E+00  0.0000E+00
     -7.229  0.2629E-01  0.2629E-01  0.2787E-01  0.2787E-01  0.0000E+00  0.0000E+00
     -6.833  0.2311E-01  0.2311E-01  0.2645E-01  0.2645E-01  0.0000E+00  0.0000E+00
     -6.436  0.2047E-01  0.2047E-01  0.3469E-01  0.3469E-01  0.0000E+00  0.0000E+00
     -6.040  0.2012E-01  0.2012E-01  0.4310E-01  0.4310E-01  0.0000E+00  0.0000E+00
     -5.644  0.1955E-01  0.1955E-01  0.4701E-01  0.4701E-01  0.0000E+00  0.0000E+00
     -5.248  0.1694E-01  0.1694E-01  0.4672E-01  0.4671E-01  0.0000E+00  0.0000E+00
     -4.852  0.1625E-01  0.1625E-01  0.5082E-01  0.5082E-01  0.0000E+00  0.0000E+00
     -4.455  0.1671E-01  0.1671E-01  0.5892E-01  0.5892E-01  0.0000E+00  0.0000E+00
     -4.059  0.1415E-01  0.1415E-01  0.6557E-01  0.6557E-01  0.0000E+00  0.0000E+00
     -3.663  0.1290E-01  0.1290E-01  0.7984E-01  0.7984E-01  0.0000E+00  0.0000E+00
     -3.267  0.1258E-01  0.1258E-01  0.9804E-01  0.9804E-01  0.0000E+00  0.0000E+00
     -2.871  0.1097E-01  0.1097E-01  0.1240E+00  0.1240E+00  0.0000E+00  0.0000E+00
     -2.474  0.8566E-02  0.8566E-02  0.1652E+00  0.1652E+00  0.0000E+00  0.0000E+00
     -2.078  0.6799E-02  0.6799E-02  0.1444E+00  0.1444E+00  0.0000E+00  0.0000E+00
     -1.682  0.5254E-02  0.5254E-02  0.1176E+00  0.1176E+00  0.0000E+00  0.0000E+00
     -1.286  0.3783E-02  0.3783E-02  0.1029E+00  0.1029E+00  0.0000E+00  0.0000E+00
     -0.889  0.3087E-02  0.3087E-02  0.9797E-01  0.9797E-01  0.0000E+00  0.0000E+00
     -0.493  0.2184E-02  0.2184E-02  0.9036E-01  0.9036E-01  0.0000E+00  0.0000E+00
     -0.097  0.1581E-02  0.1581E-02  0.9046E-01  0.9046E-01  0.0000E+00  0.0000E+00
      0.299  0.9089E-03  0.9089E-03  0.8465E-01  0.8465E-01  0.0000E+00  0.0000E+00
      0.695  0.4038E-03  0.4038E-03  0.8444E-01  0.8444E-01  0.0000E+00  0.0000E+00
      1.092  0.5599E-04  0.5599E-04  0.5843E-01  0.5843E-01  0.0000E+00  0.0000E+00
      1.488  0.2763E-04  0.2763E-04  0.5646E-01  0.5646E-01  0.0000E+00  0.0000E+00
      1.884  0.2298E-04  0.2298E-04  0.5357E-01  0.5357E-01  0.0000E+00  0.0000E+00
      2.280  0.1204E-04  0.1204E-04  0.3272E-01  0.3272E-01  0.0000E+00  0.0000E+00
      2.677  0.7191E-05  0.7191E-05  0.2216E-01  0.2216E-01  0.0000E+00  0.0000E+00
      3.073  0.4160E-05  0.4161E-05  0.1477E-01  0.1477E-01  0.0000E+00  0.0000E+00
      3.469  0.2052E-05  0.2052E-05  0.8299E-02  0.8299E-02  0.0000E+00  0.0000E+00
      3.865  0.5559E-06  0.5559E-06  0.2333E-02  0.2333E-02  0.0000E+00  0.0000E+00
      4.261  0.5097E-06  0.5097E-06  0.2686E-02  0.2686E-02  0.0000E+00  0.0000E+00
      4.658  0.1453E-05  0.1453E-05  0.9805E-02  0.9806E-02  0.0000E+00  0.0000E+00
      5.054  0.2484E-05  0.2484E-05  0.1938E-01  0.1938E-01  0.0000E+00  0.0000E+00
      5.450  0.5367E-05  0.5367E-05  0.4463E-01  0.4463E-01  0.0000E+00  0.0000E+00
      5.846  0.7217E-05  0.7217E-05  0.6006E-01  0.6006E-01  0.0000E+00  0.0000E+00
      6.242  0.3857E-05  0.3857E-05  0.4522E-01  0.4522E-01  0.0000E+00  0.0000E+00
      6.639  0.2455E-05  0.2455E-05  0.3793E-01  0.3793E-01  0.0000E+00  0.0000E+00
      7.035  0.1702E-05  0.1702E-05  0.3436E-01  0.3436E-01  0.0000E+00  0.0000E+00
      7.431  0.9157E-05  0.9158E-05  0.3164E-01  0.3164E-01  0.0000E+00  0.0000E+00
      7.827  0.4983E-03  0.4983E-03  0.3069E-01  0.3069E-01  0.0000E+00  0.0000E+00
      8.224  0.9711E-03  0.9711E-03  0.2936E-01  0.2936E-01  0.0000E+00  0.0000E+00
      8.620  0.1212E-02  0.1212E-02  0.2773E-01  0.2773E-01  0.0000E+00  0.0000E+00
      9.016  0.1338E-02  0.1338E-02  0.2643E-01  0.2643E-01  0.0000E+00  0.0000E+00
      9.412  0.1444E-02  0.1444E-02  0.2662E-01  0.2662E-01  0.0000E+00  0.0000E+00
      9.808  0.1529E-02  0.1529E-02  0.2715E-01  0.2715E-01  0.0000E+00  0.0000E+00
     10.205  0.1524E-02  0.1524E-02  0.2550E-01  0.2550E-01  0.0000E+00  0.0000E+00
     10.601  0.1436E-02  0.1436E-02  0.2457E-01  0.2457E-01  0.0000E+00  0.0000E+00
     10.997  0.1477E-02  0.1477E-02  0.2700E-01  0.2700E-01  0.0000E+00  0.0000E+00
     11.393  0.2111E-01  0.2111E-01  0.3362E-01  0.3362E-01  0.0000E+00  0.0000E+00
     11.789  0.4770E-01  0.4770E-01  0.4581E-01  0.4582E-01  0.0000E+00  0.0000E+00
     12.186  0.4754E-01  0.4754E-01  0.6472E-01  0.6473E-01  0.0000E+00  0.0000E+00
     12.582  0.4412E-01  0.4412E-01  0.1242E+00  0.1242E+00  0.0000E+00  0.0000E+00
     12.978  0.3117E-01  0.3117E-01  0.7911E-01  0.7911E-01  0.0000E+00  0.0000E+00
     13.374  0.2533E-01  0.2533E-01  0.6980E-01  0.6980E-01  0.0000E+00  0.0000E+00
     13.771  0.1826E-01  0.1826E-01  0.6362E-01  0.6362E-01  0.0000E+00  0.0000E+00
     14.167  0.1694E-01  0.1694E-01  0.6416E-01  0.6416E-01  0.0000E+00  0.0000E+00
     14.563  0.1516E-01  0.1516E-01  0.6735E-01  0.6735E-01  0.0000E+00  0.0000E+00
     14.959  0.1761E-01  0.1761E-01  0.6799E-01  0.6799E-01  0.0000E+00  0.0000E+00
     15.355  0.1652E-01  0.1652E-01  0.6225E-01  0.6225E-01  0.0000E+00  0.0000E+00
     15.752  0.1500E-01  0.1500E-01  0.4049E-01  0.4049E-01  0.0000E+00  0.0000E+00
     16.148  0.1888E-01  0.1888E-01  0.4677E-01  0.4677E-01  0.0000E+00  0.0000E+00
     16.544  0.1610E-01  0.1610E-01  0.4961E-01  0.4961E-01  0.0000E+00  0.0000E+00
     16.940  0.1351E-01  0.1351E-01  0.4526E-01  0.4526E-01  0.0000E+00  0.0000E+00
     17.337  0.1035E-01  0.1035E-01  0.5011E-01  0.5011E-01  0.0000E+00  0.0000E+00
     17.733  0.7080E-02  0.7080E-02  0.3527E-01  0.3527E-01  0.0000E+00  0.0000E+00
     18.129  0.5175E-02  0.5175E-02  0.3350E-01  0.3349E-01  0.0000E+00  0.0000E+00
     18.525  0.2984E-02  0.2985E-02  0.2279E-01  0.2279E-01  0.0000E+00  0.0000E+00
     18.921  0.2225E-02  0.2225E-02  0.2012E-01  0.2012E-01  0.0000E+00  0.0000E+00
     19.318  0.1256E-02  0.1256E-02  0.1080E-01  0.1084E-01  0.0000E+00  0.0000E+00
     19.714  0.6939E-03  0.6940E-03  0.7630E-02  0.7663E-02  0.0000E+00  0.0000E+00
     20.110  0.1500E-03  0.1500E-03  0.2851E-02  0.2853E-02  0.0000E+00  0.0000E+00
     20.506  0.4402E-04  0.4401E-04  0.1238E-02  0.1215E-02  0.0000E+00  0.0000E+00
     20.902  0.1291E-08  0.1289E-08  0.8435E-07  0.8432E-07  0.0000E+00  0.0000E+00
     21.299  0.0000E+00  0.0000E+00  0.0000E+00  0.0000E+00  0.0000E+00  0.0000E+00
     21.695  0.0000E+00  0.0000E+00  0.0000E+00  0.0000E+00  0.0000E+00  0.0000E+00
     22.091  0.0000E+00  0.0000E+00  0.0000E+00  0.0000E+00  0.0000E+00  0.0000E+00
     22.09109207    -17.53050815  101      3.84711993      1.00000000
    -17.531  0.0000E+00  0.0000E+00  0.0000E+00  0.0000E+00  0.0000E+00  0.0000E+00
    -17.134  0.0000E+00  0.0000E+00  0.0000E+00  0.0000E+00  0.0000E+00  0.0000E+00
    -16.738  0.0000E+00  0.0000E+00  0.0000E+00  0.0000E+00  0.0000E+00  0.0000E+00
    -16.342  0.0000E+00  0.0000E+00  0.0000E+00  0.0000E+00  0.0000E+00  0.0000E+00
    -15.946  0.5767E-06  0.5769E-06  0.6911E-09  0.6914E-09  0.0000E+00  0.0000E+00
    -15.549  0.1372E-01  0.1373E-01  0.7754E-04  0.7755E-04  0.0000E+00  0.0000E+00
    -15.153  0.4532E-01  0.4532E-01  0.9571E-03  0.9572E-03  0.0000E+00  0.0000E+00
    -14.757  0.4508E-01  0.4508E-01  0.2168E-02  0.2168E-02  0.0000E+00  0.0000E+00
    -14.361  0.4462E-01  0.4462E-01  0.3396E-02  0.3396E-02  0.0000E+00  0.0000E+00
    -13.965  0.4374E-01  0.4374E-01  0.4591E-02  0.4591E-02  0.0000E+00  0.0000E+00
    -13.568  0.4371E-01  0.4371E-01  0.5858E-02  0.5858E-02  0.0000E+00  0.0000E+00
    -13.172  0.4207E-01  0.4207E-01  0.6908E-02  0.6908E-02  0.0000E+00  0.0000E+00
    -12.776  0.4314E-01  0.4314E-01  0.8397E-02  0.8397E-02  0.0000E+00  0.0000E+00
    -12.380  0.4302E-01  0.4302E-01  0.9693E-02  0.9693E-02  0.0000E+00  0.0000E+00
    -11.983  0.4232E-01  0.4232E-01  0.1081E-01  0.1081E-01  0.0000E+00  0.0000E+00
    -11.587  0.4218E-01  0.4218E-01  0.1198E-01  0.1198E-01  0.0000E+00  0.0000E+00
    -11.191  0.4274E-01  0.4274E-01  0.1320E-01  0.1320E-01  0.0000E+00  0.0000E+00
    -10.795  0.4469E-01  0.4469E-01  0.1453E-01  0.1453E-01  0.0000E+00  0.0000E+00
    -10.399  0.5427E-01  0.5427E-01  0.1695E-01  0.1695E-01  0.0000E+00  0.0000E+00
    -10.002  0.4358E-01  0.4358E-01  0.1389E-01  0.1389E-01  0.0000E+00  0.0000E+00
     -9.606  0.2237E-01  0.2237E-01  0.8242E-02  0.8242E-02  0.0000E+00  0.0000E+00
     -9.210  0.2027E-01  0.2027E-01  0.1475E-01  0.1475E-01  0.0000E+00  0.0000E+00
     -8.814  0.2705E-01  0.2705E-01  0.2786E-01  0.2786E-01  0.0000E+00  0.0000E+00
     -8.418  0.3546E-01  0.3546E-01  0.3402E-01  0.3402E-01  0.0000E+00  0.0000E+00
     -8.021  0.3510E-01  0.3510E-01  0.3256E-01  0.3256E-01  0.0000E+00  0.0000E+00
     -7.625  0.2939E-01  0.2939E-01  0.2865E-01  0.2865E-01  0.0000E+00  0.0000E+00
     -7.229  0.2629E-01  0.2629E-01  0.2784E-01  0.2784E-01  0.0000E+00  0.0000E+00
     -6.833  0.2311E-01  0.2311E-01  0.2643E-01  0.2643E-01  0.0000E+00  0.0000E+00
     -6.436  0.2046E-01  0.2046E-01  0.3466E-01  0.3466E-01  0.0000E+00  0.0000E+00
     -6.040  0.2012E-01  0.2012E-01  0.4307E-01  0.4307E-01  0.0000E+00  0.0000E+00
     -5.644  0.1954E-01  0.1954E-01  0.4698E-01  0.4698E-01  0.0000E+00  0.0000E+00
     -5.248  0.1694E-01  0.1694E-01  0.4668E-01  0.4668E-01  0.0000E+00  0.0000E+00
     -4.852  0.1625E-01  0.1625E-01  0.5078E-01  0.5078E-01  0.0000E+00  0.0000E+00
     -4.455  0.1671E-01  0.1671E-01  0.5888E-01  0.5888E-01  0.0000E+00  0.0000E+00
     -4.059  0.1415E-01  0.1415E-01  0.6553E-01  0.6553E-01  0.0000E+00  0.0000E+00
     -3.663  0.1290E-01  0.1290E-01  0.7977E-01  0.7977E-01  0.0000E+00  0.0000E+00
     -3.267  0.1259E-01  0.1259E-01  0.9796E-01  0.9796E-01  0.0000E+00  0.0000E+00
     -2.871  0.1098E-01  0.1098E-01  0.1239E+00  0.1239E+00  0.0000E+00  0.0000E+00
     -2.474  0.8578E-02  0.8578E-02  0.1651E+00  0.1651E+00  0.0000E+00  0.0000E+00
     -2.078  0.6779E-02  0.6780E-02  0.1443E+00  0.1443E+00  0.0000E+00  0.0000E+00
     -1.682  0.5238E-02  0.5238E-02  0.1175E+00  0.1175E+00  0.0000E+00  0.0000E+00
     -1.286  0.3772E-02  0.3772E-02  0.1028E+00  0.1028E+00  0.0000E+00  0.0000E+00
     -0.889  0.3078E-02  0.3078E-02  0.9786E-01  0.9786E-01  0.0000E+00  0.0000E+00
     -0.493  0.2176E-02  0.2176E-02  0.9024E-01  0.9024E-01  0.0000E+00  0.0000E+00
     -0.097  0.1573E-02  0.1573E-02  0.9032E-01  0.9032E-01  0.0000E+00  0.0000E+00
      0.299  0.9005E-03  0.9005E-03  0.8447E-01  0.8447E-01  0.0000E+00  0.0000E+00
      0.695  0.3944E-03  0.3943E-03  0.8419E-01  0.8419E-01  0.0000E+00  0.0000E+00
      1.092  0.4431E-04  0.4430E-04  0.5798E-01  0.5798E-01  0.0000E+00  0.0000E+00
      1.488  0.9215E-05  0.9215E-05  0.5533E-01  0.5533E-01  0.0000E+00  0.0000E+00
      1.884  0.5122E-05  0.5122E-05  0.5508E-01  0.5508E-01  0.0000E+00  0.0000E+00
      2.280  0.2540E-05  0.2540E-05  0.3342E-01  0.3342E-01  0.0000E+00  0.0000E+00
      2.677  0.1206E-05  0.1206E-05  0.2264E-01  0.2264E-01  0.0000E+00  0.0000E+00
      3.073  0.4724E-06  0.4724E-06  0.1515E-01  0.1515E-01  0.0000E+00  0.0000E+00
      3.469  0.1221E-06  0.1221E-06  0.8686E-02  0.8686E-02  0.0000E+00  0.0000E+00
      3.865  0.1222E-07  0.1222E-07  0.3739E-02  0.3739E-02  0.0000E+00  0.0000E+00
      4.261  0.1795E-07  0.1795E-07  0.3608E-02  0.3608E-02  0.0000E+00  0.0000E+00
      4.658  0.2562E-06  0.2562E-06  0.9171E-02  0.9172E-02  0.0000E+00  0.0000E+00
      5.054  0.1765E-05  0.1765E-05  0.1826E-01  0.1826E-01  0.0000E+00  0.0000E+00
      5.450  0.1563E-04  0.1563E-04  0.3933E-01  0.3933E-01  0.0000E+00  0.0000E+00
      5.846  0.4038E-04  0.4038E-04  0.6009E-01  0.6009E-01  0.0000E+00  0.0000E+00
      6.242  0.2417E-04  0.2417E-04  0.4655E-01  0.4655E-01  0.0000E+00  0.0000E+00
      6.639  0.1785E-04  0.1785E-04  0.3830E-01  0.3830E-01  0.0000E+00  0.0000E+00
      7.035  0.1516E-04  0.1516E-04  0.3447E-01  0.3447E-01  0.0000E+00  0.0000E+00
      7.431  0.2155E-04  0.2155E-04  0.3178E-01  0.3178E-01  0.0000E+00  0.0000E+00
      7.827  0.5132E-03  0.5132E-03  0.3080E-01  0.3080E-01  0.0000E+00  0.0000E+00
      8.224  0.9884E-03  0.9884E-03  0.2942E-01  0.2942E-01  0.0000E+00  0.0000E+00
      8.620  0.1231E-02  0.1231E-02  0.2779E-01  0.2779E-01  0.0000E+00  0.0000E+00
      9.016  0.1359E-02  0.1359E-02  0.2653E-01  0.2653E-01  0.0000E+00  0.0000E+00
      9.412  0.1469E-02  0.1469E-02  0.2678E-01  0.2678E-01  0.0000E+00  0.0000E+00
      9.808  0.1563E-02  0.1563E-02  0.2740E-01  0.2740E-01  0.0000E+00  0.0000E+00
     10.205  0.1580E-02  0.1580E-02  0.2588E-01  0.2588E-01  0.0000E+00  0.0000E+00
     10.601  0.1480E-02  0.1480E-02  0.2466E-01  0.2466E-01  0.0000E+00  0.0000E+00
     10.997  0.1511E-02  0.1511E-02  0.2679E-01  0.2679E-01  0.0000E+00  0.0000E+00
     11.393  0.2142E-01  0.2142E-01  0.3323E-01  0.3323E-01  0.0000E+00  0.0000E+00
     11.789  0.4635E-01  0.4635E-01  0.4488E-01  0.4488E-01  0.0000E+00  0.0000E+00
     12.186  0.4740E-01  0.4740E-01  0.6346E-01  0.6346E-01  0.0000E+00  0.0000E+00
     12.582  0.4415E-01  0.4414E-01  0.1229E+00  0.1229E+00  0.0000E+00  0.0000E+00