 vasp.6.2.1 16May21 (build Sep 13 2021 08:36:44) complex                        
  
 executed on             LinuxIFC date 2023.04.28  16:25:58
 running on    1 total cores
 distrk:  each k-point on    1 cores,    1 groups
 distr:  one band on NCORE=   1 cores,    1 groups


--------------------------------------------------------------------------------------------------------


 INCAR:
   ADDGRID = .FALSE.
   ALGO = NORMAL
   EDIFF = 1e-06
   EDIFFG = -0.02
   ENCUT = 500.0
   GGA = PE
   IBRION = 2
   ISIF = 3
   ISMEAR = 0
   ISPIN = 2
   ISYM = 1
   IVDW = 12
   KSPACING = 0.5
   LASPH = .FALSE.
   LCHARG = False
   LORBIT = 10
   LPLANE = .TRUE.
   LREAL = AUTO
   LWAVE = False
   NCORE = 4
   NEDOS = 101
   NELM = 1000
   NELMDL = -12
   NELMIN = 6
   NSW = 100
   NWRITE = 1
   POTIM = 0.25
   PREC = Normal
   SIGMA = 0.1
   SYSTEM = C4

 POTCAR:    PAW_PBE C_GW 28Sep2005                
 -----------------------------------------------------------------------------
|                                                                             |
|           W    W    AA    RRRRR   N    N  II  N    N   GGGG   !!!           |
|           W    W   A  A   R    R  NN   N  II  NN   N  G    G  !!!           |
|           W    W  A    A  R    R  N N  N  II  N N  N  G       !!!           |
|           W WW W  AAAAAA  RRRRR   N  N N  II  N  N N  G  GGG   !            |
|           WW  WW  A    A  R   R   N   NN  II  N   NN  G    G                |
|           W    W  A    A  R    R  N    N  II  N    N   GGGG   !!!           |
|                                                                             |
|     You use a magnetic or noncollinear calculation, but did not specify     |
|     the initial magnetic moment with the MAGMOM tag. Note that a            |
|     default of 1 will be used for all atoms. This ferromagnetic setup       |
|     may break the symmetry of the crystal, in particular it may rule        |
|     out finding an antiferromagnetic solution. Thence, we recommend         |
|     setting the initial magnetic moment manually or verifying carefully     |
|     that this magnetic setup is desired.                                    |
|                                                                             |
 -----------------------------------------------------------------------------

 -----------------------------------------------------------------------------
|                                                                             |
|           W    W    AA    RRRRR   N    N  II  N    N   GGGG   !!!           |
|           W    W   A  A   R    R  NN   N  II  NN   N  G    G  !!!           |
|           W    W  A    A  R    R  N N  N  II  N N  N  G       !!!           |
|           W WW W  AAAAAA  RRRRR   N  N N  II  N  N N  G  GGG   !            |
|           WW  WW  A    A  R   R   N   NN  II  N   NN  G    G                |
|           W    W  A    A  R    R  N    N  II  N    N   GGGG   !!!           |
|                                                                             |
|     The value NCORE = 4 specified in the INCAR file was overwritten,        |
|     because it was not compatible with the 1 processes available:           |
|     NCORE = 1                                                               |
|     was used instead, please check that this makes sense for your           |
|     machine.                                                                |
|                                                                             |
 -----------------------------------------------------------------------------

 POTCAR:    PAW_PBE C_GW 28Sep2005                
  local pseudopotential read in
  kinetic energy density of atom read in
  atomic valenz-charges read in
  non local Contribution for L=           0  read in
    real space projection operators read in
  non local Contribution for L=           0  read in
    real space projection operators read in
  non local Contribution for L=           1  read in
    real space projection operators read in
  non local Contribution for L=           1  read in
    real space projection operators read in
    PAW grid and wavefunctions read in
 
   number of l-projection  operators is LMAX  =           4
   number of lm-projection operators is LMMAX =           8
 
 -----------------------------------------------------------------------------
|                                                                             |
|               ----> ADVICE to this user running VASP <----                  |
|                                                                             |
|     You have a (more or less) 'small supercell' and for smaller cells       |
|     it is recommended to use the reciprocal-space projection scheme!        |
|     The real-space optimization is not efficient for small cells and it     |
|     is also less accurate ...                                               |
|     Therefore, set LREAL=.FALSE. in the INCAR file.                         |
|                                                                             |
 -----------------------------------------------------------------------------

 Optimization of the real space projectors (new method)

 maximal supplied QI-value         = 25.13
 optimisation between [QCUT,QGAM] = [ 11.31, 22.87] = [ 35.82,146.48] Ry 
 Optimized for a Real-space Cutoff    1.07 Angstroem

   l    n(q)    QCUT    max X(q) W(low)/X(q) W(high)/X(q)  e(spline) 
   0      7    11.310     6.744    0.16E-03    0.38E-03    0.95E-07
   0      7    11.310     2.789    0.17E-03    0.49E-03    0.14E-06
   1      7    11.310     2.977    0.19E-03    0.32E-03    0.17E-07
   1      7    11.310     2.397    0.35E-03    0.49E-03    0.12E-06
  PAW_PBE C_GW 28Sep2005                :
 energy of atom  1       EATOM= -147.1560
 kinetic energy error for atom=    0.0076 (will be added to EATOM!!)
 
 
 POSCAR:  C
  positions in direct lattice
  No initial velocities read in
 exchange correlation table for  LEXCH =        8
   RHO(1)=    0.500       N(1)  =     2000
   RHO(2)=  100.500       N(2)  =     4000
 


--------------------------------------------------------------------------------------------------------


 ion  position               nearest neighbor table
   1  0.000  0.000  0.250-   3 1.42   3 1.42   3 1.42
   2  0.000  0.000  0.750-   4 1.42   4 1.42   4 1.42
   3  0.333  0.667  0.250-   1 1.42   1 1.42   1 1.42
   4  0.667  0.333  0.750-   2 1.42   2 1.42   2 1.42
 
  LATTYP: Found a hexagonal cell.
 ALAT       =     2.4559999985
 C/A-ratio  =     2.0358306201
  
  Lattice vectors:
  
 A1 = (   1.2280000000,  -2.1269583900,   0.0000000000)
 A2 = (   1.2280000000,   2.1269583900,   0.0000000000)
 A3 = (   0.0000000000,   0.0000000000,   5.0000000000)


Analysis of symmetry for initial positions (statically):
=====================================================================
 Subroutine PRICEL returns:
 Original cell was already a primitive cell.
 

 Routine SETGRP: Setting up the symmetry group for a 
 hexagonal supercell.


 Subroutine GETGRP returns: Found 24 space group operations
 (whereof 12 operations were pure point group operations)
 out of a pool of 24 trial point group operations.


The static configuration has the point symmetry D_3d.
 The point group associated with its full space group is D_6h.


Analysis of symmetry for dynamics (positions and initial velocities):
=====================================================================
 Subroutine PRICEL returns:
 Original cell was already a primitive cell.
 

 Routine SETGRP: Setting up the symmetry group for a 
 hexagonal supercell.


 Subroutine GETGRP returns: Found 24 space group operations
 (whereof 12 operations were pure point group operations)
 out of a pool of 24 trial point group operations.


The dynamic configuration has the point symmetry D_3d.
 The point group associated with its full space group is D_6h.


Analysis of structural, dynamic, and magnetic symmetry:
=====================================================================
 Subroutine PRICEL returns:
 Original cell was already a primitive cell.
 

 Routine SETGRP: Setting up the symmetry group for a 
 hexagonal supercell.


 Subroutine GETGRP returns: Found 24 space group operations
 (whereof 12 operations were pure point group operations)
 out of a pool of 24 trial point group operations.


The overall configuration has the point symmetry D_3d.
 The point group associated with its full space group is D_6h.


 Subroutine INISYM returns: Found 24 space group operations
 (whereof 12 operations are pure point group operations),
 and found     1 'primitive' translations


----------------------------------------------------------------------------------------

                                     Primitive cell                                     

  volume of cell :      26.1190

  direct lattice vectors                    reciprocal lattice vectors
     1.228000000 -2.126958390  0.000000000     0.407166124 -0.235077471  0.000000000
     1.228000000  2.126958390  0.000000000     0.407166124  0.235077471  0.000000000
     0.000000000  0.000000000  5.000000000     0.000000000  0.000000000  0.200000000

  length of vectors
     2.455999999  2.455999999  5.000000000     0.470154942  0.470154942  0.200000000

  position of ions in fractional coordinates (direct lattice)
     0.000000000  0.000000000  0.250000000
     0.000000000  0.000000000  0.750000000
     0.333333330  0.666666670  0.250000000
     0.666666670  0.333333330  0.750000000

  ion indices of the primitive-cell ions
   primitive index   ion index
                 1           1
                 2           2
                 3           3
                 4           4

----------------------------------------------------------------------------------------

 
 
 KPOINTS: Automatic kpoint scheme                 

Automatic generation of k-mesh.
 Grid dimensions read from file:
 generate k-points for:    6    6    6

 Generating k-lattice:

  Cartesian coordinates                     Fractional coordinates (reciprocal lattice)
     0.067861021 -0.039179579  0.000000000     0.166666667  0.000000000  0.000000000
     0.067861021  0.039179579  0.000000000     0.000000000  0.166666667  0.000000000
     0.000000000  0.000000000  0.033333333     0.000000000  0.000000000  0.166666667

  Length of vectors
     0.078359157  0.078359157  0.033333333

  Shift w.r.t. Gamma in fractional coordinates (k-lattice)
     0.500000000  0.500000000  0.500000000

 
 Subroutine IBZKPT returns following result:
 ===========================================
 
 Found     36 irreducible k-points:
 
 Following reciprocal coordinates:
            Coordinates               Weight
  0.083333  0.083333  0.083333     12.000000
  0.250000  0.083333  0.083333     24.000000
  0.416667  0.083333  0.083333     24.000000
 -0.416667  0.083333  0.083333     24.000000
 -0.250000  0.083333  0.083333     24.000000
 -0.083333  0.083333  0.083333     12.000000
  0.250000  0.250000  0.083333     12.000000
  0.416667  0.250000  0.083333     24.000000
 -0.416667  0.250000  0.083333     24.000000
 -0.250000  0.250000  0.083333     12.000000
  0.416667  0.416667  0.083333     12.000000
 -0.416667  0.416667  0.083333     12.000000
  0.083333  0.083333  0.250000     12.000000
  0.250000  0.083333  0.250000     24.000000
  0.416667  0.083333  0.250000     24.000000
 -0.416667  0.083333  0.250000     24.000000
 -0.250000  0.083333  0.250000     24.000000
 -0.083333  0.083333  0.250000     12.000000
  0.250000  0.250000  0.250000     12.000000
  0.416667  0.250000  0.250000     24.000000
 -0.416667  0.250000  0.250000     24.000000
 -0.250000  0.250000  0.250000     12.000000
  0.416667  0.416667  0.250000     12.000000
 -0.416667  0.416667  0.250000     12.000000
  0.083333  0.083333  0.416667     12.000000
  0.250000  0.083333  0.416667     24.000000
  0.416667  0.083333  0.416667     24.000000
 -0.416667  0.083333  0.416667     24.000000
 -0.250000  0.083333  0.416667     24.000000
 -0.083333  0.083333  0.416667     12.000000
  0.250000  0.250000  0.416667     12.000000
  0.416667  0.250000  0.416667     24.000000
 -0.416667  0.250000  0.416667     24.000000
 -0.250000  0.250000  0.416667     12.000000
  0.416667  0.416667  0.416667     12.000000
 -0.416667  0.416667  0.416667     12.000000
 
 Following cartesian coordinates:
            Coordinates               Weight
  0.067861  0.000000  0.016667     12.000000
  0.135722 -0.039180  0.016667     24.000000
  0.203583 -0.078359  0.016667     24.000000
 -0.135722  0.117539  0.016667     24.000000
 -0.067861  0.078359  0.016667     24.000000
  0.000000  0.039180  0.016667     12.000000
  0.203583  0.000000  0.016667     12.000000
  0.271444 -0.039180  0.016667     24.000000
 -0.067861  0.156718  0.016667     24.000000
  0.000000  0.117539  0.016667     12.000000
  0.339305  0.000000  0.016667     12.000000
  0.000000  0.195898  0.016667     12.000000
  0.067861  0.000000  0.050000     12.000000
  0.135722 -0.039180  0.050000     24.000000
  0.203583 -0.078359  0.050000     24.000000
 -0.135722  0.117539  0.050000     24.000000
 -0.067861  0.078359  0.050000     24.000000
  0.000000  0.039180  0.050000     12.000000
  0.203583  0.000000  0.050000     12.000000
  0.271444 -0.039180  0.050000     24.000000
 -0.067861  0.156718  0.050000     24.000000
  0.000000  0.117539  0.050000     12.000000
  0.339305  0.000000  0.050000     12.000000
  0.000000  0.195898  0.050000     12.000000
  0.067861  0.000000  0.083333     12.000000
  0.135722 -0.039180  0.083333     24.000000
  0.203583 -0.078359  0.083333     24.000000
 -0.135722  0.117539  0.083333     24.000000
 -0.067861  0.078359  0.083333     24.000000
  0.000000  0.039180  0.083333     12.000000
  0.203583  0.000000  0.083333     12.000000
  0.271444 -0.039180  0.083333     24.000000
 -0.067861  0.156718  0.083333     24.000000
  0.000000  0.117539  0.083333     12.000000
  0.339305  0.000000  0.083333     12.000000
  0.000000  0.195898  0.083333     12.000000
 


--------------------------------------------------------------------------------------------------------




 Dimension of arrays:
   k-points           NKPTS =     36   k-points in BZ     NKDIM =     36   number of bands    NBANDS=     14
   number of dos      NEDOS =    101   number of ions     NIONS =      4
   non local maximal  LDIM  =      4   non local SUM 2l+1 LMDIM =      8
   total plane-waves  NPLWV =   5488
   max r-space proj   IRMAX =   1113   max aug-charges    IRDMAX=   2679
   dimension x,y,z NGX =    14 NGY =   14 NGZ =   28
   dimension x,y,z NGXF=    28 NGYF=   28 NGZF=   56
   support grid    NGXF=    28 NGYF=   28 NGZF=   56
   ions per type =               4
   NGX,Y,Z   is equivalent  to a cutoff of   9.48,  9.48,  9.31 a.u.
   NGXF,Y,Z  is equivalent  to a cutoff of  18.95, 18.95, 18.62 a.u.

 SYSTEM =  C4                                      
 POSCAR =   C                                      

 Startparameter for this run:
   NWRITE =      1    write-flag & timer
   PREC   = normal    normal or accurate (medium, high low for compatibility)
   ISTART =      0    job   : 0-new  1-cont  2-samecut
   ICHARG =      2    charge: 1-file 2-atom 10-const
   ISPIN  =      2    spin polarized calculation?
   LNONCOLLINEAR =      F non collinear calculations
   LSORBIT =      F    spin-orbit coupling
   INIWAV =      1    electr: 0-lowe 1-rand  2-diag
   LASPH  =      F    aspherical Exc in radial PAW
 Electronic Relaxation 1
   ENCUT  =  500.0 eV  36.75 Ry    6.06 a.u.   4.48  4.48  9.12*2*pi/ulx,y,z
   ENINI  =  500.0     initial cutoff
   ENAUG  =  644.9 eV  augmentation charge cutoff
   NELM   =   1000;   NELMIN=  6; NELMDL=-12     # of ELM steps 
   EDIFF  = 0.1E-05   stopping-criterion for ELM
   LREAL  =      T    real-space projection
   NLSPLINE    = F    spline interpolate recip. space projectors
   LCOMPAT=      F    compatible to vasp.4.4
   GGA_COMPAT  = T    GGA compatible to vasp.4.4-vasp.4.6
   LMAXPAW     = -100 max onsite density
   LMAXMIX     =    2 max onsite mixed and CHGCAR
   VOSKOWN=      0    Vosko Wilk Nusair interpolation
   ROPT   =   -0.00050
 Ionic relaxation
   EDIFFG = -.2E-01   stopping-criterion for IOM
   NSW    =    100    number of steps for IOM
   NBLOCK =      1;   KBLOCK =    100    inner block; outer block 
   IBRION =      2    ionic relax: 0-MD 1-quasi-New 2-CG
   NFREE  =      1    steps in history (QN), initial steepest desc. (CG)
   ISIF   =      3    stress and relaxation
   IWAVPR =     11    prediction:  0-non 1-charg 2-wave 3-comb
   ISYM   =      1    0-nonsym 1-usesym 2-fastsym
   LCORR  =      T    Harris-Foulkes like correction to forces

   POTIM  = 0.2500    time-step for ionic-motion
   TEIN   =    0.0    initial temperature
   TEBEG  =    0.0;   TEEND  =   0.0 temperature during run
   SMASS  =  -3.00    Nose mass-parameter (am)
   estimated Nose-frequenzy (Omega)   =  0.10E-29 period in steps = 0.25E+47 mass=  -0.138E-27a.u.
   SCALEE = 1.0000    scale energy and forces
   NPACO  =    256;   APACO  = 16.0  distance and # of slots for P.C.
   PSTRESS=    0.0 pullay stress

  Mass of Ions in am
   POMASS =  12.01
  Ionic Valenz
   ZVAL   =   4.00
  Atomic Wigner-Seitz radii
   RWIGS  =  -1.00
  virtual crystal weights 
   VCA    =   1.00
   NELECT =      16.0000    total number of electrons
   NUPDOWN=      -1.0000    fix difference up-down

 DOS related values:
   EMIN   =  10.00;   EMAX   =-10.00  energy-range for DOS
   EFERMI =   0.00
   ISMEAR =     0;   SIGMA  =   0.10  broadening in eV -4-tet -1-fermi 0-gaus

 Electronic relaxation 2 (details)
   IALGO  =     38    algorithm
   LDIAG  =      T    sub-space diagonalisation (order eigenvalues)
   LSUBROT=      F    optimize rotation matrix (better conditioning)
   TURBO    =      0    0=normal 1=particle mesh
   IRESTART =      0    0=no restart 2=restart with 2 vectors
   NREBOOT  =      0    no. of reboots
   NMIN     =      0    reboot dimension
   EREF     =   0.00    reference energy to select bands
   IMIX   =      4    mixing-type and parameters
     AMIX     =   0.40;   BMIX     =  1.00
     AMIX_MAG =   1.60;   BMIX_MAG =  1.00
     AMIN     =   0.10
     WC   =   100.;   INIMIX=   1;  MIXPRE=   1;  MAXMIX= -45

 Intra band minimization:
   WEIMIN = 0.0010     energy-eigenvalue tresh-hold
   EBREAK =  0.18E-07  absolut break condition
   DEPER  =   0.30     relativ break condition  

   TIME   =   0.40     timestep for ELM

  volume/ion in A,a.u.               =       6.53        44.07
  Fermi-wavevector in a.u.,A,eV,Ry     =   1.390366  2.627410 26.301650  1.933117
  Thomas-Fermi vector in A             =   2.514308
 
 Write flags
   LWAVE        =      F    write WAVECAR
   LDOWNSAMPLE  =      F    k-point downsampling of WAVECAR
   LCHARG       =      F    write CHGCAR
   LVTOT        =      F    write LOCPOT, total local potential
   LVHAR        =      F    write LOCPOT, Hartree potential only
   LELF         =      F    write electronic localiz. function (ELF)
   LORBIT       =     10    0 simple, 1 ext, 2 COOP (PROOUT), +10 PAW based schemes


 Dipole corrections
   LMONO  =      F    monopole corrections only (constant potential shift)
   LDIPOL =      F    correct potential (dipole corrections)
   IDIPOL =      0    1-x, 2-y, 3-z, 4-all directions 
   EPSILON=  1.0000000 bulk dielectric constant

 Exchange correlation treatment:
   GGA     =    PE    GGA type
   LEXCH   =     8    internal setting for exchange type
   VOSKOWN=      0    Vosko Wilk Nusair interpolation
   LHFCALC =     F    Hartree Fock is set to
   LHFONE  =     F    Hartree Fock one center treatment
   AEXX    =    0.0000 exact exchange contribution

 Linear response parameters
   LEPSILON=     F    determine dielectric tensor
   LRPA    =     F    only Hartree local field effects (RPA)
   LNABLA  =     F    use nabla operator in PAW spheres
   LVEL    =     F    velocity operator in full k-point grid
   LINTERFAST=   F  fast interpolation
   KINTER  =     0    interpolate to denser k-point grid
   CSHIFT  =0.1000    complex shift for real part using Kramers Kronig
   OMEGAMAX=  -1.0    maximum frequency
   DEG_THRESHOLD= 0.2000000E-02 threshold for treating states as degnerate
   RTIME   =   -0.100 relaxation time in fs
  (WPLASMAI=    0.000 imaginary part of plasma frequency in eV, 0.658/RTIME)
   DFIELD  = 0.0000000 0.0000000 0.0000000 field for delta impulse in time
 
 Orbital magnetization related:
   ORBITALMAG=     F  switch on orbital magnetization
   LCHIMAG   =     F  perturbation theory with respect to B field
   DQ        =  0.001000  dq finite difference perturbation B field
   LLRAUG    =     F  two centre corrections for induced B field



--------------------------------------------------------------------------------------------------------


 conjugate gradient relaxation of ions
 charge density and potential will be updated during run
 spin polarized calculation
 Variant of blocked Davidson
 Davidson routine will perform the subspace rotation
 perform sub-space diagonalisation
    after iterative eigenvector-optimisation
 modified Broyden-mixing scheme, WC =      100.0
 initial mixing is a Kerker type mixing with AMIX =  0.4000 and BMIX =      1.0000
 Hartree-type preconditioning will be used
 using additional bands            6
 real space projection scheme for non local part
 calculate Harris-corrections to forces 
   (improved forces if not selfconsistent)
 use gradient corrections 
 use of overlap-Matrix (Vanderbilt PP)
 Gauss-broadening in eV      SIGMA  =   0.10


--------------------------------------------------------------------------------------------------------


  energy-cutoff  :      500.00
  volume of cell :       26.12
      direct lattice vectors                 reciprocal lattice vectors
     1.228000000 -2.126958390  0.000000000     0.407166124 -0.235077471  0.000000000
     1.228000000  2.126958390  0.000000000     0.407166124  0.235077471  0.000000000
     0.000000000  0.000000000  5.000000000     0.000000000  0.000000000  0.200000000

  length of vectors
     2.455999999  2.455999999  5.000000000     0.470154942  0.470154942  0.200000000


 
 k-points in units of 2pi/SCALE and weight: Automatic kpoint scheme                 
   0.06786102  0.00000000  0.01666667       0.019
   0.13572204 -0.03917958  0.01666667       0.037
   0.20358306 -0.07835916  0.01666667       0.037
  -0.13572204  0.11753874  0.01666667       0.037
  -0.06786102  0.07835916  0.01666667       0.037
   0.00000000  0.03917958  0.01666667       0.019
   0.20358306  0.00000000  0.01666667       0.019
   0.27144408 -0.03917958  0.01666667       0.037
  -0.06786102  0.15671831  0.01666667       0.037
   0.00000000  0.11753874  0.01666667       0.019
   0.33930510  0.00000000  0.01666667       0.019
   0.00000000  0.19589789  0.01666667       0.019
   0.06786102  0.00000000  0.05000000       0.019
   0.13572204 -0.03917958  0.05000000       0.037
   0.20358306 -0.07835916  0.05000000       0.037
  -0.13572204  0.11753874  0.05000000       0.037
  -0.06786102  0.07835916  0.05000000       0.037
   0.00000000  0.03917958  0.05000000       0.019
   0.20358306  0.00000000  0.05000000       0.019
   0.27144408 -0.03917958  0.05000000       0.037
  -0.06786102  0.15671831  0.05000000       0.037
   0.00000000  0.11753874  0.05000000       0.019
   0.33930510  0.00000000  0.05000000       0.019
   0.00000000  0.19589789  0.05000000       0.019
   0.06786102  0.00000000  0.08333333       0.019
   0.13572204 -0.03917958  0.08333333       0.037
   0.20358306 -0.07835916  0.08333333       0.037
  -0.13572204  0.11753874  0.08333333       0.037
  -0.06786102  0.07835916  0.08333333       0.037
   0.00000000  0.03917958  0.08333333       0.019
   0.20358306  0.00000000  0.08333333       0.019
   0.27144408 -0.03917958  0.08333333       0.037
  -0.06786102  0.15671831  0.08333333       0.037
   0.00000000  0.11753874  0.08333333       0.019
   0.33930510  0.00000000  0.08333333       0.019
   0.00000000  0.19589789  0.08333333       0.019
 
 k-points in reciprocal lattice and weights: Automatic kpoint scheme                 
   0.08333333  0.08333333  0.08333333       0.019
   0.25000000  0.08333333  0.08333333       0.037
   0.41666667  0.08333333  0.08333333       0.037
  -0.41666667  0.08333333  0.08333333       0.037
  -0.25000000  0.08333333  0.08333333       0.037
  -0.08333333  0.08333333  0.08333333       0.019
   0.25000000  0.25000000  0.08333333       0.019
   0.41666667  0.25000000  0.08333333       0.037
  -0.41666667  0.25000000  0.08333333       0.037
  -0.25000000  0.25000000  0.08333333       0.019
   0.41666667  0.41666667  0.08333333       0.019
  -0.41666667  0.41666667  0.08333333       0.019
   0.08333333  0.08333333  0.25000000       0.019
   0.25000000  0.08333333  0.25000000       0.037
   0.41666667  0.08333333  0.25000000       0.037
  -0.41666667  0.08333333  0.25000000       0.037
  -0.25000000  0.08333333  0.25000000       0.037
  -0.08333333  0.08333333  0.25000000       0.019
   0.25000000  0.25000000  0.25000000       0.019
   0.41666667  0.25000000  0.25000000       0.037
  -0.41666667  0.25000000  0.25000000       0.037
  -0.25000000  0.25000000  0.25000000       0.019
   0.41666667  0.41666667  0.25000000       0.019
  -0.41666667  0.41666667  0.25000000       0.019
   0.08333333  0.08333333  0.41666667       0.019
   0.25000000  0.08333333  0.41666667       0.037
   0.41666667  0.08333333  0.41666667       0.037
  -0.41666667  0.08333333  0.41666667       0.037
  -0.25000000  0.08333333  0.41666667       0.037
  -0.08333333  0.08333333  0.41666667       0.019
   0.25000000  0.25000000  0.41666667       0.019
   0.41666667  0.25000000  0.41666667       0.037
  -0.41666667  0.25000000  0.41666667       0.037
  -0.25000000  0.25000000  0.41666667       0.019
   0.41666667  0.41666667  0.41666667       0.019
  -0.41666667  0.41666667  0.41666667       0.019
 
 position of ions in fractional coordinates (direct lattice) 
   0.00000000  0.00000000  0.25000000
   0.00000000  0.00000000  0.75000000
   0.33333333  0.66666667  0.25000000
   0.66666667  0.33333333  0.75000000
 
 position of ions in cartesian coordinates  (Angst):
   0.00000000  0.00000000  1.25000000
   0.00000000  0.00000000  3.75000000
   1.22800000  0.70898614  1.25000000
   1.22800000 -0.70898614  3.75000000
 


--------------------------------------------------------------------------------------------------------


 k-point   1 :   0.0833 0.0833 0.0833  plane waves:     670
 k-point   2 :   0.2500 0.0833 0.0833  plane waves:     667
 k-point   3 :   0.4167 0.0833 0.0833  plane waves:     657
 k-point   4 :  -0.4167 0.0833 0.0833  plane waves:     663
 k-point   5 :  -0.2500 0.0833 0.0833  plane waves:     670
 k-point   6 :  -0.0833 0.0833 0.0833  plane waves:     663
 k-point   7 :   0.2500 0.2500 0.0833  plane waves:     653
 k-point   8 :   0.4167 0.2500 0.0833  plane waves:     655
 k-point   9 :  -0.4167 0.2500 0.0833  plane waves:     660
 k-point  10 :  -0.2500 0.2500 0.0833  plane waves:     672
 k-point  11 :   0.4167 0.4167 0.0833  plane waves:     658
 k-point  12 :  -0.4167 0.4167 0.0833  plane waves:     658
 k-point  13 :   0.0833 0.0833 0.2500  plane waves:     675
 k-point  14 :   0.2500 0.0833 0.2500  plane waves:     665
 k-point  15 :   0.4167 0.0833 0.2500  plane waves:     653
 k-point  16 :  -0.4167 0.0833 0.2500  plane waves:     661
 k-point  17 :  -0.2500 0.0833 0.2500  plane waves:     675
 k-point  18 :  -0.0833 0.0833 0.2500  plane waves:     672
 k-point  19 :   0.2500 0.2500 0.2500  plane waves:     655
 k-point  20 :   0.4167 0.2500 0.2500  plane waves:     663
 k-point  21 :  -0.4167 0.2500 0.2500  plane waves:     664
 k-point  22 :  -0.2500 0.2500 0.2500  plane waves:     664
 k-point  23 :   0.4167 0.4167 0.2500  plane waves:     655
 k-point  24 :  -0.4167 0.4167 0.2500  plane waves:     662
 k-point  25 :   0.0833 0.0833 0.4167  plane waves:     672
 k-point  26 :   0.2500 0.0833 0.4167  plane waves:     666
 k-point  27 :   0.4167 0.0833 0.4167  plane waves:     655
 k-point  28 :  -0.4167 0.0833 0.4167  plane waves:     659
 k-point  29 :  -0.2500 0.0833 0.4167  plane waves:     670
 k-point  30 :  -0.0833 0.0833 0.4167  plane waves:     685
 k-point  31 :   0.2500 0.2500 0.4167  plane waves:     661
 k-point  32 :   0.4167 0.2500 0.4167  plane waves:     662
 k-point  33 :  -0.4167 0.2500 0.4167  plane waves:     665
 k-point  34 :  -0.2500 0.2500 0.4167  plane waves:     668
 k-point  35 :   0.4167 0.4167 0.4167  plane waves:     649
 k-point  36 :  -0.4167 0.4167 0.4167  plane waves:     660

 maximum and minimum number of plane-waves per node :       685      649

 maximum number of plane-waves:       685
 maximum index in each direction: 
   IXMAX=    4   IYMAX=    4   IZMAX=    9
   IXMIN=   -4   IYMIN=   -4   IZMIN=   -9


 serial   3D FFT for wavefunctions
 parallel 3D FFT for charge:
    minimum data exchange during FFTs selected (reduces bandwidth)


 total amount of memory used by VASP MPI-rank0    47180. kBytes
=======================================================================

   base      :      30000. kBytes
   nonlr-proj:        359. kBytes
   fftplans  :       1540. kBytes
   grid      :       3694. kBytes
   one-center:         24. kBytes
   wavefun   :      11563. kBytes
 
     INWAV:  cpu time    0.0001: real time    0.0004
 Broyden mixing: mesh for mixing (old mesh)
   NGX =  9   NGY =  9   NGZ = 19
  (NGX  = 28   NGY  = 28   NGZ  = 56)
  gives a total of   1539 points

 initial charge density was supplied:
 charge density of overlapping atoms calculated
 number of electron      16.0000000 magnetization       4.0000000
 keeping initial charge density in first step


--------------------------------------------------------------------------------------------------------


 Maximum index for non-local projection operator         1029
 Maximum index for augmentation-charges         2415 (set IRDMAX)


--------------------------------------------------------------------------------------------------------


 First call to EWALD:  gamma=   0.597
 Maximum number of real-space cells 4x 4x 2
 Maximum number of reciprocal cells 2x 2x 4

    FEWALD:  cpu time    0.0012: real time    0.0012


--------------------------------------- Iteration      1(   1)  ---------------------------------------


    POTLOK:  cpu time    0.0340: real time    0.0386
    SETDIJ:  cpu time    0.0137: real time    0.0154
     EDDAV:  cpu time    0.8906: real time    0.9001
       DOS:  cpu time    0.0028: real time    0.0036
    --------------------------------------------
      LOOP:  cpu time    0.9412: real time    0.9577

 eigenvalue-minimisations  :  2016
 total energy-change (2. order) : 0.5981081E+02  (-0.8311872E+03)
 number of electron      16.0000000 magnetization       4.0000000
 augmentation part       16.0000000 magnetization       4.0000000

 Free energy of the ion-electron system (eV)
  ---------------------------------------------------
  alpha Z        PSCENC =        49.91309931
  Ewald energy   TEWEN  =      -618.34426812
  -Hartree energ DENC   =       -62.85416062
  -exchange      EXHF   =         0.00000000
  -V(xc)+E(xc)   XCENC  =        57.20447535
  PAW double counting   =       431.24634053     -435.81739869
  entropy T*S    EENTRO =        -0.00392125
  eigenvalues    EBANDS =        49.87295717
  atomic energy  EATOM  =       588.59368669
  Solvation  Ediel_sol  =         0.00000000
  ---------------------------------------------------
  free energy    TOTEN  =        59.81081036 eV

  energy without entropy =       59.81473162  energy(sigma->0) =       59.81277099


--------------------------------------------------------------------------------------------------------




--------------------------------------- Iteration      1(   2)  ---------------------------------------


     EDDAV:  cpu time    1.1983: real time    1.2014
       DOS:  cpu time    0.0026: real time    0.0026
    --------------------------------------------
      LOOP:  cpu time    1.2009: real time    1.2040

 eigenvalue-minimisations  :  2910
 total energy-change (2. order) :-0.9257299E+02  (-0.8239636E+02)
 number of electron      16.0000000 magnetization       4.0000000
 augmentation part       16.0000000 magnetization       4.0000000

 Free energy of the ion-electron system (eV)
  ---------------------------------------------------
  alpha Z        PSCENC =        49.91309931
  Ewald energy   TEWEN  =      -618.34426812
  -Hartree energ DENC   =       -62.85416062
  -exchange      EXHF   =         0.00000000
  -V(xc)+E(xc)   XCENC  =        57.20447535
  PAW double counting   =       431.24634053     -435.81739869
  entropy T*S    EENTRO =        -0.00190863
  eigenvalues    EBANDS =       -42.70204572
  atomic energy  EATOM  =       588.59368669
  Solvation  Ediel_sol  =         0.00000000
  ---------------------------------------------------
  free energy    TOTEN  =       -32.76217990 eV

  energy without entropy =      -32.76027127  energy(sigma->0) =      -32.76122559


--------------------------------------------------------------------------------------------------------




--------------------------------------- Iteration      1(   3)  ---------------------------------------


     EDDAV:  cpu time    1.1651: real time    1.1667
       DOS:  cpu time    0.0027: real time    0.0027
    --------------------------------------------
      LOOP:  cpu time    1.1678: real time    1.1694

 eigenvalue-minimisations  :  2810
 total energy-change (2. order) :-0.3496811E+01  (-0.3453214E+01)
 number of electron      16.0000000 magnetization       4.0000000
 augmentation part       16.0000000 magnetization       4.0000000

 Free energy of the ion-electron system (eV)
  ---------------------------------------------------
  alpha Z        PSCENC =        49.91309931
  Ewald energy   TEWEN  =      -618.34426812
  -Hartree energ DENC   =       -62.85416062
  -exchange      EXHF   =         0.00000000
  -V(xc)+E(xc)   XCENC  =        57.20447535
  PAW double counting   =       431.24634053     -435.81739869
  entropy T*S    EENTRO =        -0.00205299
  eigenvalues    EBANDS =       -46.19871235
  atomic energy  EATOM  =       588.59368669
  Solvation  Ediel_sol  =         0.00000000
  ---------------------------------------------------
  free energy    TOTEN  =       -36.25899089 eV

  energy without entropy =      -36.25693790  energy(sigma->0) =      -36.25796440


--------------------------------------------------------------------------------------------------------




--------------------------------------- Iteration      1(   4)  ---------------------------------------


     EDDAV:  cpu time    1.0596: real time    1.0614
       DOS:  cpu time    0.0027: real time    0.0027
    --------------------------------------------
      LOOP:  cpu time    1.0623: real time    1.0641

 eigenvalue-minimisations  :  2510
 total energy-change (2. order) :-0.4760677E-01  (-0.4756592E-01)
 number of electron      16.0000000 magnetization       4.0000000
 augmentation part       16.0000000 magnetization       4.0000000

 Free energy of the ion-electron system (eV)
  ---------------------------------------------------
  alpha Z        PSCENC =        49.91309931
  Ewald energy   TEWEN  =      -618.34426812
  -Hartree energ DENC   =       -62.85416062
  -exchange      EXHF   =         0.00000000
  -V(xc)+E(xc)   XCENC  =        57.20447535
  PAW double counting   =       431.24634053     -435.81739869
  entropy T*S    EENTRO =        -0.00206237
  eigenvalues    EBANDS =       -46.24630974
  atomic energy  EATOM  =       588.59368669
  Solvation  Ediel_sol  =         0.00000000
  ---------------------------------------------------
  free energy    TOTEN  =       -36.30659766 eV

  energy without entropy =      -36.30453529  energy(sigma->0) =      -36.30556647


--------------------------------------------------------------------------------------------------------




--------------------------------------- Iteration      1(   5)  ---------------------------------------


     EDDAV:  cpu time    1.1722: real time    1.1753
       DOS:  cpu time    0.0027: real time    0.0027
    --------------------------------------------
      LOOP:  cpu time    1.1749: real time    1.1780

 eigenvalue-minimisations  :  2828
 total energy-change (2. order) :-0.1093253E-02  (-0.1092328E-02)
 number of electron      16.0000000 magnetization       4.0000000
 augmentation part       16.0000000 magnetization       4.0000000

 Free energy of the ion-electron system (eV)
  ---------------------------------------------------
  alpha Z        PSCENC =        49.91309931
  Ewald energy   TEWEN  =      -618.34426812
  -Hartree energ DENC   =       -62.85416062
  -exchange      EXHF   =         0.00000000
  -V(xc)+E(xc)   XCENC  =        57.20447535
  PAW double counting   =       431.24634053     -435.81739869
  entropy T*S    EENTRO =        -0.00206277
  eigenvalues    EBANDS =       -46.24740259
  atomic energy  EATOM  =       588.59368669
  Solvation  Ediel_sol  =         0.00000000
  ---------------------------------------------------
  free energy    TOTEN  =       -36.30769091 eV

  energy without entropy =      -36.30562814  energy(sigma->0) =      -36.30665953


--------------------------------------------------------------------------------------------------------




--------------------------------------- Iteration      1(   6)  ---------------------------------------


     EDDAV:  cpu time    1.1121: real time    1.1134
       DOS:  cpu time    0.0026: real time    0.0026
    --------------------------------------------
      LOOP:  cpu time    1.1147: real time    1.1160

 eigenvalue-minimisations  :  2656
 total energy-change (2. order) :-0.4425787E-04  (-0.4425623E-04)
 number of electron      16.0000000 magnetization       4.0000000
 augmentation part       16.0000000 magnetization       4.0000000

 Free energy of the ion-electron system (eV)
  ---------------------------------------------------
  alpha Z        PSCENC =        49.91309931
  Ewald energy   TEWEN  =      -618.34426812
  -Hartree energ DENC   =       -62.85416062
  -exchange      EXHF   =         0.00000000
  -V(xc)+E(xc)   XCENC  =        57.20447535
  PAW double counting   =       431.24634053     -435.81739869
  entropy T*S    EENTRO =        -0.00206279
  eigenvalues    EBANDS =       -46.24744682
  atomic energy  EATOM  =       588.59368669
  Solvation  Ediel_sol  =         0.00000000
  ---------------------------------------------------
  free energy    TOTEN  =       -36.30773517 eV

  energy without entropy =      -36.30567238  energy(sigma->0) =      -36.30670377


--------------------------------------------------------------------------------------------------------




--------------------------------------- Iteration      1(   7)  ---------------------------------------


     EDDAV:  cpu time    1.1424: real time    1.1442
       DOS:  cpu time    0.0027: real time    0.0027
    --------------------------------------------
      LOOP:  cpu time    1.1451: real time    1.1469

 eigenvalue-minimisations  :  2732
 total energy-change (2. order) :-0.1436571E-05  (-0.1436667E-05)
 number of electron      16.0000000 magnetization       4.0000000
 augmentation part       16.0000000 magnetization       4.0000000

 Free energy of the ion-electron system (eV)
  ---------------------------------------------------
  alpha Z        PSCENC =        49.91309931
  Ewald energy   TEWEN  =      -618.34426812
  -Hartree energ DENC   =       -62.85416062
  -exchange      EXHF   =         0.00000000
  -V(xc)+E(xc)   XCENC  =        57.20447535
  PAW double counting   =       431.24634053     -435.81739869
  entropy T*S    EENTRO =        -0.00206279
  eigenvalues    EBANDS =       -46.24744826
  atomic energy  EATOM  =       588.59368669
  Solvation  Ediel_sol  =         0.00000000
  ---------------------------------------------------
  free energy    TOTEN  =       -36.30773661 eV

  energy without entropy =      -36.30567381  energy(sigma->0) =      -36.30670521


--------------------------------------------------------------------------------------------------------




--------------------------------------- Iteration      1(   8)  ---------------------------------------


     EDDAV:  cpu time    0.9147: real time    0.9175
       DOS:  cpu time    0.0023: real time    0.0023
    --------------------------------------------
      LOOP:  cpu time    0.9170: real time    0.9198

 eigenvalue-minimisations  :  2080
 total energy-change (2. order) :-0.4544768E-07  (-0.4640333E-07)
 number of electron      16.0000000 magnetization       4.0000000
 augmentation part       16.0000000 magnetization       4.0000000

 Free energy of the ion-electron system (eV)
  ---------------------------------------------------
  alpha Z        PSCENC =        49.91309931
  Ewald energy   TEWEN  =      -618.34426812
  -Hartree energ DENC   =       -62.85416062
  -exchange      EXHF   =         0.00000000
  -V(xc)+E(xc)   XCENC  =        57.20447535
  PAW double counting   =       431.24634053     -435.81739869
  entropy T*S    EENTRO =        -0.00206279
  eigenvalues    EBANDS =       -46.24744831
  atomic energy  EATOM  =       588.59368669
  Solvation  Ediel_sol  =         0.00000000
  ---------------------------------------------------
  free energy    TOTEN  =       -36.30773665 eV

  energy without entropy =      -36.30567386  energy(sigma->0) =      -36.30670526


--------------------------------------------------------------------------------------------------------




--------------------------------------- Iteration      1(   9)  ---------------------------------------


     EDDAV:  cpu time    0.9721: real time    0.9733
       DOS:  cpu time    0.0027: real time    0.0027
    --------------------------------------------
      LOOP:  cpu time    0.9748: real time    0.9760

 eigenvalue-minimisations  :  2238
 total energy-change (2. order) :-0.4666390E-08  (-0.4033983E-08)
 number of electron      16.0000000 magnetization       4.0000000
 augmentation part       16.0000000 magnetization       4.0000000

 Free energy of the ion-electron system (eV)
  ---------------------------------------------------
  alpha Z        PSCENC =        49.91309931
  Ewald energy   TEWEN  =      -618.34426812
  -Hartree energ DENC   =       -62.85416062
  -exchange      EXHF   =         0.00000000
  -V(xc)+E(xc)   XCENC  =        57.20447535
  PAW double counting   =       431.24634053     -435.81739869
  entropy T*S    EENTRO =        -0.00206279
  eigenvalues    EBANDS =       -46.24744831
  atomic energy  EATOM  =       588.59368669
  Solvation  Ediel_sol  =         0.00000000
  ---------------------------------------------------
  free energy    TOTEN  =       -36.30773666 eV

  energy without entropy =      -36.30567386  energy(sigma->0) =      -36.30670526


--------------------------------------------------------------------------------------------------------




--------------------------------------- Iteration      1(  10)  ---------------------------------------


     EDDAV:  cpu time    0.8292: real time    0.8307
       DOS:  cpu time    0.0025: real time    0.0025
    --------------------------------------------
      LOOP:  cpu time    0.8318: real time    0.8332

 eigenvalue-minimisations  :  1830
 total energy-change (2. order) :-0.5529728E-09  (-0.1199755E-08)
 number of electron      16.0000000 magnetization       4.0000000
 augmentation part       16.0000000 magnetization       4.0000000

 Free energy of the ion-electron system (eV)
  ---------------------------------------------------
  alpha Z        PSCENC =        49.91309931
  Ewald energy   TEWEN  =      -618.34426812
  -Hartree energ DENC   =       -62.85416062
  -exchange      EXHF   =         0.00000000
  -V(xc)+E(xc)   XCENC  =        57.20447535
  PAW double counting   =       431.24634053     -435.81739869
  entropy T*S    EENTRO =        -0.00206279
  eigenvalues    EBANDS =       -46.24744831
  atomic energy  EATOM  =       588.59368669
  Solvation  Ediel_sol  =         0.00000000
  ---------------------------------------------------
  free energy    TOTEN  =       -36.30773666 eV

  energy without entropy =      -36.30567386  energy(sigma->0) =      -36.30670526


--------------------------------------------------------------------------------------------------------




--------------------------------------- Iteration      1(  11)  ---------------------------------------


     EDDAV:  cpu time    0.7827: real time    0.7838
       DOS:  cpu time    0.0027: real time    0.0027
    --------------------------------------------
      LOOP:  cpu time    0.7854: real time    0.7864

 eigenvalue-minimisations  :  1668
 total energy-change (2. order) :-0.6824621E-09  (-0.4552037E-09)
 number of electron      16.0000000 magnetization       4.0000000
 augmentation part       16.0000000 magnetization       4.0000000

 Free energy of the ion-electron system (eV)
  ---------------------------------------------------
  alpha Z        PSCENC =        49.91309931
  Ewald energy   TEWEN  =      -618.34426812
  -Hartree energ DENC   =       -62.85416062
  -exchange      EXHF   =         0.00000000
  -V(xc)+E(xc)   XCENC  =        57.20447535
  PAW double counting   =       431.24634053     -435.81739869
  entropy T*S    EENTRO =        -0.00206279
  eigenvalues    EBANDS =       -46.24744831
  atomic energy  EATOM  =       588.59368669
  Solvation  Ediel_sol  =         0.00000000
  ---------------------------------------------------
  free energy    TOTEN  =       -36.30773666 eV

  energy without entropy =      -36.30567386  energy(sigma->0) =      -36.30670526


--------------------------------------------------------------------------------------------------------




--------------------------------------- Iteration      1(  12)  ---------------------------------------


     EDDAV:  cpu time    0.6675: real time    0.6694
       DOS:  cpu time    0.0026: real time    0.0026
    CHARGE:  cpu time    0.0546: real time    0.0547
    MIXING:  cpu time    0.0008: real time    0.0017
    --------------------------------------------
      LOOP:  cpu time    0.7255: real time    0.7283

 eigenvalue-minimisations  :  1344
 total energy-change (2. order) :-0.6416485E-09  (-0.1740647E-09)
 number of electron      15.9999995 magnetization       0.2316833
 augmentation part        0.2899889 magnetization       0.0834983

 Broyden mixing:
  rms(total) = 0.12223E+01    rms(broyden)= 0.12221E+01
  rms(prec ) = 0.17458E+01
  weight for this iteration     100.00

 Free energy of the ion-electron system (eV)
  ---------------------------------------------------
  alpha Z        PSCENC =        49.91309931
  Ewald energy   TEWEN  =      -618.34426812
  -Hartree energ DENC   =       -62.85416062
  -exchange      EXHF   =         0.00000000
  -V(xc)+E(xc)   XCENC  =        57.20447535
  PAW double counting   =       431.24634053     -435.81739869
  entropy T*S    EENTRO =        -0.00206279
  eigenvalues    EBANDS =       -46.24744831
  atomic energy  EATOM  =       588.59368669
  Solvation  Ediel_sol  =         0.00000000
  ---------------------------------------------------
  free energy    TOTEN  =       -36.30773666 eV

  energy without entropy =      -36.30567387  energy(sigma->0) =      -36.30670526


--------------------------------------------------------------------------------------------------------




--------------------------------------- Iteration      1(  13)  ---------------------------------------


    POTLOK:  cpu time    0.0298: real time    0.0301
    SETDIJ:  cpu time    0.0137: real time    0.0137
     EDDAV:  cpu time    1.0556: real time    1.0567
       DOS:  cpu time    0.0006: real time    0.0006
    CHARGE:  cpu time    0.0542: real time    0.0542
    MIXING:  cpu time    0.0008: real time    0.0008
    --------------------------------------------
      LOOP:  cpu time    1.1548: real time    1.1562

 eigenvalue-minimisations  :  2502
 total energy-change (2. order) : 0.1051596E+00  (-0.1756662E+00)
 number of electron      15.9999996 magnetization      -0.0616598
 augmentation part        0.2588448 magnetization      -0.0639420

 Broyden mixing:
  rms(total) = 0.45448E+00    rms(broyden)= 0.45447E+00
  rms(prec ) = 0.78183E+00
  weight for this iteration     100.00

 eigenvalues of (default mixing * dielectric matrix)
  average eigenvalue GAMMA=   0.9342
  0.9342

 Free energy of the ion-electron system (eV)
  ---------------------------------------------------
  alpha Z        PSCENC =        49.91309931
  Ewald energy   TEWEN  =      -618.34426812
  -Hartree energ DENC   =       -74.48606292
  -exchange      EXHF   =         0.00000000
  -V(xc)+E(xc)   XCENC  =        57.50980533
  PAW double counting   =       587.66411842     -592.70091867
  entropy T*S    EENTRO =        -0.00000000
  eigenvalues    EBANDS =       -34.35203711
  atomic energy  EATOM  =       588.59368669
  Solvation  Ediel_sol  =         0.00000000
  ---------------------------------------------------
  free energy    TOTEN  =       -36.20257707 eV

  energy without entropy =      -36.20257707  energy(sigma->0) =      -36.20257707


--------------------------------------------------------------------------------------------------------




--------------------------------------- Iteration      1(  14)  ---------------------------------------


    POTLOK:  cpu time    0.0294: real time    0.0301
    SETDIJ:  cpu time    0.0137: real time    0.0137
     EDDAV:  cpu time    1.0553: real time    1.0565
       DOS:  cpu time    0.0009: real time    0.0009
    CHARGE:  cpu time    0.0542: real time    0.0542
    MIXING:  cpu time    0.0009: real time    0.0014
    --------------------------------------------
      LOOP:  cpu time    1.1542: real time    1.1568

 eigenvalue-minimisations  :  2496
 total energy-change (2. order) : 0.3518269E+00  (-0.1013691E+00)
 number of electron      15.9999997 magnetization      -0.0327229
 augmentation part        0.2391616 magnetization      -0.0336254

 Broyden mixing:
  rms(total) = 0.19887E+00    rms(broyden)= 0.19886E+00
  rms(prec ) = 0.31056E+00
  weight for this iteration     100.00

 eigenvalues of (default mixing * dielectric matrix)
  average eigenvalue GAMMA=   1.1262
  0.8287  1.4236

 Free energy of the ion-electron system (eV)
  ---------------------------------------------------
  alpha Z        PSCENC =        49.91309931
  Ewald energy   TEWEN  =      -618.34426812
  -Hartree energ DENC   =       -82.65403885
  -exchange      EXHF   =         0.00000000
  -V(xc)+E(xc)   XCENC  =        58.13102600
  PAW double counting   =       712.18496073     -717.49360292
  entropy T*S    EENTRO =        -0.00000000
  eigenvalues    EBANDS =       -26.18161300
  atomic energy  EATOM  =       588.59368669
  Solvation  Ediel_sol  =         0.00000000
  ---------------------------------------------------
  free energy    TOTEN  =       -35.85075016 eV

  energy without entropy =      -35.85075016  energy(sigma->0) =      -35.85075016


--------------------------------------------------------------------------------------------------------




--------------------------------------- Iteration      1(  15)  ---------------------------------------


    POTLOK:  cpu time    0.0295: real time    0.0308
    SETDIJ:  cpu time    0.0137: real time    0.0137
     EDDAV:  cpu time    1.0782: real time    1.0794
       DOS:  cpu time    0.0008: real time    0.0008
    CHARGE:  cpu time    0.0540: real time    0.0541
    MIXING:  cpu time    0.0008: real time    0.0008
    --------------------------------------------
      LOOP:  cpu time    1.1769: real time    1.1795

 eigenvalue-minimisations  :  2562
 total energy-change (2. order) : 0.2508657E-01  (-0.2134396E-01)
 number of electron      15.9999997 magnetization       0.0017100
 augmentation part        0.2289245 magnetization       0.0039185

 Broyden mixing:
  rms(total) = 0.59340E-01    rms(broyden)= 0.59333E-01
  rms(prec ) = 0.76934E-01
  weight for this iteration     100.00

 eigenvalues of (default mixing * dielectric matrix)
  average eigenvalue GAMMA=   1.2422
  1.9741  0.9782  0.7742

 Free energy of the ion-electron system (eV)
  ---------------------------------------------------
  alpha Z        PSCENC =        49.91309931
  Ewald energy   TEWEN  =      -618.34426812
  -Hartree energ DENC   =       -86.98005364
  -exchange      EXHF   =         0.00000000
  -V(xc)+E(xc)   XCENC  =        58.47619691
  PAW double counting   =       787.76552143     -793.20669213
  entropy T*S    EENTRO =        -0.00000000
  eigenvalues    EBANDS =       -22.04315404
  atomic energy  EATOM  =       588.59368669
  Solvation  Ediel_sol  =         0.00000000
  ---------------------------------------------------
  free energy    TOTEN  =       -35.82566358 eV

  energy without entropy =      -35.82566358  energy(sigma->0) =      -35.82566358


--------------------------------------------------------------------------------------------------------




--------------------------------------- Iteration      1(  16)  ---------------------------------------


    POTLOK:  cpu time    0.0292: real time    0.0295
    SETDIJ:  cpu time    0.0137: real time    0.0137
     EDDAV:  cpu time    1.0778: real time    1.0790
       DOS:  cpu time    0.0008: real time    0.0008
    CHARGE:  cpu time    0.0541: real time    0.0541
    MIXING:  cpu time    0.0008: real time    0.0008
    --------------------------------------------
      LOOP:  cpu time    1.1764: real time    1.1779

 eigenvalue-minimisations  :  2568
 total energy-change (2. order) :-0.1683683E-02  (-0.1654781E-02)
 number of electron      15.9999997 magnetization       0.0027694
 augmentation part        0.2275260 magnetization       0.0019092

 Broyden mixing:
  rms(total) = 0.29271E-01    rms(broyden)= 0.29269E-01
  rms(prec ) = 0.38182E-01
  weight for this iteration     100.00

 eigenvalues of (default mixing * dielectric matrix)
  average eigenvalue GAMMA=   1.1976
  2.1580  1.0883  0.8740  0.6700

 Free energy of the ion-electron system (eV)
  ---------------------------------------------------
  alpha Z        PSCENC =        49.91309931
  Ewald energy   TEWEN  =      -618.34426812
  -Hartree energ DENC   =       -87.47139483
  -exchange      EXHF   =         0.00000000
  -V(xc)+E(xc)   XCENC  =        58.51969496
  PAW double counting   =       802.56537748     -808.01273839
  entropy T*S    EENTRO =        -0.00000000
  eigenvalues    EBANDS =       -21.59080436
  atomic energy  EATOM  =       588.59368669
  Solvation  Ediel_sol  =         0.00000000
  ---------------------------------------------------
  free energy    TOTEN  =       -35.82734727 eV

  energy without entropy =      -35.82734727  energy(sigma->0) =      -35.82734727


--------------------------------------------------------------------------------------------------------




--------------------------------------- Iteration      1(  17)  ---------------------------------------


    POTLOK:  cpu time    0.0293: real time    0.0299
    SETDIJ:  cpu time    0.0137: real time    0.0137
     EDDAV:  cpu time    1.0982: real time    1.0993
       DOS:  cpu time    0.0008: real time    0.0008
    CHARGE:  cpu time    0.0542: real time    0.0542
    MIXING:  cpu time    0.0009: real time    0.0009
    --------------------------------------------
      LOOP:  cpu time    1.1970: real time    1.1989

 eigenvalue-minimisations  :  2624
 total energy-change (2. order) : 0.3107265E-03  (-0.1786886E-03)
 number of electron      15.9999997 magnetization       0.0000983
 augmentation part        0.2277637 magnetization       0.0005307

 Broyden mixing:
  rms(total) = 0.14124E-01    rms(broyden)= 0.14123E-01
  rms(prec ) = 0.18186E-01
  weight for this iteration     100.00

 eigenvalues of (default mixing * dielectric matrix)
  average eigenvalue GAMMA=   1.2379
  2.2528  1.4810  0.9827  0.8395  0.6335

 Free energy of the ion-electron system (eV)
  ---------------------------------------------------
  alpha Z        PSCENC =        49.91309931
  Ewald energy   TEWEN  =      -618.34426812
  -Hartree energ DENC   =       -87.47445555
  -exchange      EXHF   =         0.00000000
  -V(xc)+E(xc)   XCENC  =        58.52250485
  PAW double counting   =       807.36801885     -812.80739177
  entropy T*S    EENTRO =        -0.00000000
  eigenvalues    EBANDS =       -21.59823080
  atomic energy  EATOM  =       588.59368669
  Solvation  Ediel_sol  =         0.00000000
  ---------------------------------------------------
  free energy    TOTEN  =       -35.82703654 eV

  energy without entropy =      -35.82703654  energy(sigma->0) =      -35.82703654


--------------------------------------------------------------------------------------------------------




--------------------------------------- Iteration      1(  18)  ---------------------------------------


    POTLOK:  cpu time    0.0295: real time    0.0312
    SETDIJ:  cpu time    0.0137: real time    0.0137
     EDDAV:  cpu time    1.0763: real time    1.0775
       DOS:  cpu time    0.0008: real time    0.0008
    CHARGE:  cpu time    0.0541: real time    0.0541
    MIXING:  cpu time    0.0009: real time    0.0009
    --------------------------------------------
      LOOP:  cpu time    1.1753: real time    1.1782

 eigenvalue-minimisations  :  2562
 total energy-change (2. order) : 0.3433634E-03  (-0.3487768E-04)
 number of electron      15.9999997 magnetization      -0.0001653
 augmentation part        0.2280737 magnetization      -0.0001856

 Broyden mixing:
  rms(total) = 0.37464E-02    rms(broyden)= 0.37463E-02
  rms(prec ) = 0.43237E-02
  weight for this iteration     100.00

 eigenvalues of (default mixing * dielectric matrix)
  average eigenvalue GAMMA=   1.2879
  2.5001  1.9627  1.0467  0.8756  0.7249  0.6173

 Free energy of the ion-electron system (eV)
  ---------------------------------------------------
  alpha Z        PSCENC =        49.91309931
  Ewald energy   TEWEN  =      -618.34426812
  -Hartree energ DENC   =       -87.45486472
  -exchange      EXHF   =         0.00000000
  -V(xc)+E(xc)   XCENC  =        58.52295628
  PAW double counting   =       810.34032564     -815.77282076
  entropy T*S    EENTRO =        -0.00000000
  eigenvalues    EBANDS =       -21.62480750
  atomic energy  EATOM  =       588.59368669
  Solvation  Ediel_sol  =         0.00000000
  ---------------------------------------------------
  free energy    TOTEN  =       -35.82669318 eV

  energy without entropy =      -35.82669318  energy(sigma->0) =      -35.82669318


--------------------------------------------------------------------------------------------------------




--------------------------------------- Iteration      1(  19)  ---------------------------------------


    POTLOK:  cpu time    0.0291: real time    0.0294
    SETDIJ:  cpu time    0.0137: real time    0.0137
     EDDAV:  cpu time    1.0781: real time    1.0793
       DOS:  cpu time    0.0008: real time    0.0008
    CHARGE:  cpu time    0.0542: real time    0.0543
    MIXING:  cpu time    0.0009: real time    0.0009
    --------------------------------------------
      LOOP:  cpu time    1.1768: real time    1.1783

 eigenvalue-minimisations  :  2568
 total energy-change (2. order) :-0.1897311E-04  (-0.4284634E-05)
 number of electron      15.9999997 magnetization       0.0000952
 augmentation part        0.2281080 magnetization       0.0000834

 Broyden mixing:
  rms(total) = 0.96754E-03    rms(broyden)= 0.96743E-03
  rms(prec ) = 0.14712E-02
  weight for this iteration     100.00

 eigenvalues of (default mixing * dielectric matrix)
  average eigenvalue GAMMA=   1.2517
  2.5248  1.9804  1.0363  1.0363  0.8511  0.7195  0.6134

 Free energy of the ion-electron system (eV)
  ---------------------------------------------------
  alpha Z        PSCENC =        49.91309931
  Ewald energy   TEWEN  =      -618.34426812
  -Hartree energ DENC   =       -87.45705856
  -exchange      EXHF   =         0.00000000
  -V(xc)+E(xc)   XCENC  =        58.52347474
  PAW double counting   =       810.64082707     -816.07256343
  entropy T*S    EENTRO =        -0.00000000
  eigenvalues    EBANDS =       -21.62390984
  atomic energy  EATOM  =       588.59368669
  Solvation  Ediel_sol  =         0.00000000
  ---------------------------------------------------
  free energy    TOTEN  =       -35.82671215 eV

  energy without entropy =      -35.82671215  energy(sigma->0) =      -35.82671215


--------------------------------------------------------------------------------------------------------




--------------------------------------- Iteration      1(  20)  ---------------------------------------


    POTLOK:  cpu time    0.0293: real time    0.0299
    SETDIJ:  cpu time    0.0137: real time    0.0137
     EDDAV:  cpu time    1.0775: real time    1.0787
       DOS:  cpu time    0.0008: real time    0.0008
    CHARGE:  cpu time    0.0540: real time    0.0541
    MIXING:  cpu time    0.0010: real time    0.0010
    --------------------------------------------
      LOOP:  cpu time    1.1763: real time    1.1781

 eigenvalue-minimisations  :  2566
 total energy-change (2. order) :-0.3942102E-05  (-0.4042634E-06)
 number of electron      15.9999997 magnetization       0.0000434
 augmentation part        0.2281006 magnetization       0.0000558

 Broyden mixing:
  rms(total) = 0.49935E-03    rms(broyden)= 0.49932E-03
  rms(prec ) = 0.65033E-03
  weight for this iteration     100.00

 eigenvalues of (default mixing * dielectric matrix)
  average eigenvalue GAMMA=   1.2937
  2.5559  2.0766  1.7277  1.0453  0.8871  0.7551  0.6893  0.6126

 Free energy of the ion-electron system (eV)
  ---------------------------------------------------
  alpha Z        PSCENC =        49.91309931
  Ewald energy   TEWEN  =      -618.34426812
  -Hartree energ DENC   =       -87.46623413
  -exchange      EXHF   =         0.00000000
  -V(xc)+E(xc)   XCENC  =        58.52432501
  PAW double counting   =       810.51836053     -815.95038303
  entropy T*S    EENTRO =        -0.00000000
  eigenvalues    EBANDS =       -21.61530235
  atomic energy  EATOM  =       588.59368669
  Solvation  Ediel_sol  =         0.00000000
  ---------------------------------------------------
  free energy    TOTEN  =       -35.82671609 eV

  energy without entropy =      -35.82671609  energy(sigma->0) =      -35.82671609


--------------------------------------------------------------------------------------------------------




--------------------------------------- Iteration      1(  21)  ---------------------------------------


    POTLOK:  cpu time    0.0294: real time    0.0310
    SETDIJ:  cpu time    0.0137: real time    0.0137
     EDDAV:  cpu time    0.8292: real time    0.8302
       DOS:  cpu time    0.0008: real time    0.0008
    CHARGE:  cpu time    0.0541: real time    0.0541
    MIXING:  cpu time    0.0012: real time    0.0012
    --------------------------------------------
      LOOP:  cpu time    0.9284: real time    0.9310

 eigenvalue-minimisations  :  1826
 total energy-change (2. order) :-0.1681807E-05  (-0.1065145E-06)
 number of electron      15.9999997 magnetization      -0.0000136
 augmentation part        0.2280940 magnetization      -0.0000207

 Broyden mixing:
  rms(total) = 0.11051E-03    rms(broyden)= 0.11048E-03
  rms(prec ) = 0.13590E-03
  weight for this iteration     100.00

 eigenvalues of (default mixing * dielectric matrix)
  average eigenvalue GAMMA=   1.3487
  2.7292  2.4316  1.9096  1.0820  1.0820  0.8690  0.7497  0.6162  0.6691

 Free energy of the ion-electron system (eV)
  ---------------------------------------------------
  alpha Z        PSCENC =        49.91309931
  Ewald energy   TEWEN  =      -618.34426812
  -Hartree energ DENC   =       -87.46972075
  -exchange      EXHF   =         0.00000000
  -V(xc)+E(xc)   XCENC  =        58.52465554
  PAW double counting   =       810.42968228     -815.86179058
  entropy T*S    EENTRO =        -0.00000000
  eigenvalues    EBANDS =       -21.61206215
  atomic energy  EATOM  =       588.59368669
  Solvation  Ediel_sol  =         0.00000000
  ---------------------------------------------------
  free energy    TOTEN  =       -35.82671777 eV

  energy without entropy =      -35.82671777  energy(sigma->0) =      -35.82671777


--------------------------------------------------------------------------------------------------------




--------------------------------------- Iteration      1(  22)  ---------------------------------------


    POTLOK:  cpu time    0.0292: real time    0.0295
    SETDIJ:  cpu time    0.0137: real time    0.0137
     EDDAV:  cpu time    0.6179: real time    0.6186
       DOS:  cpu time    0.0008: real time    0.0008
    --------------------------------------------
      LOOP:  cpu time    0.6616: real time    0.6626

 eigenvalue-minimisations  :  1194
 total energy-change (2. order) :-0.1071752E-06  (-0.1139890E-07)
 number of electron      15.9999997 magnetization      -0.0000136
 augmentation part        0.2280940 magnetization      -0.0000207

 Free energy of the ion-electron system (eV)
  ---------------------------------------------------
  alpha Z        PSCENC =        49.91309931
  Ewald energy   TEWEN  =      -618.34426812
  -Hartree energ DENC   =       -87.47008904
  -exchange      EXHF   =         0.00000000
  -V(xc)+E(xc)   XCENC  =        58.52469064
  PAW double counting   =       810.40616351     -815.83824665
  entropy T*S    EENTRO =        -0.00000000
  eigenvalues    EBANDS =       -21.61175421
  atomic energy  EATOM  =       588.59368669
  Solvation  Ediel_sol  =         0.00000000
  ---------------------------------------------------
  free energy    TOTEN  =       -35.82671788 eV

  energy without entropy =      -35.82671788  energy(sigma->0) =      -35.82671788


--------------------------------------------------------------------------------------------------------




 average (electrostatic) potential at core
  the test charge radii are     0.6991
  (the norm of the test charge is              1.0000)
       1 -47.6021       2 -47.6021       3 -47.3462       4 -47.3462
 
 
 
 E-fermi :   8.0911     XC(G=0): -12.3194     alpha+bet :-15.3742

 Fermi energy:         8.0910857530

 spin component 1

 k-point     1 :       0.0833    0.0833    0.0833
  band No.  band energies     occupation 
      1     -12.2601      1.00000
      2     -10.3523      1.00000
      3      -1.9362      1.00000
      4       2.9215      1.00000
      5       3.2240      1.00000
      6       3.7540      1.00000
      7       3.9854      1.00000
      8       4.5547      1.00000
      9      16.1942      0.00000
     10      16.6052      0.00000
     11      16.7768      0.00000
     12      17.6147      0.00000
     13      17.8428      0.00000
     14      18.1329      0.00000

 k-point     2 :       0.2500    0.0833    0.0833
  band No.  band energies     occupation 
      1     -10.5646      1.00000
      2      -8.7913      1.00000
      3      -1.1696      1.00000
      4      -0.2411      1.00000
      5       0.0814      1.00000
      6       1.6035      1.00000
      7       2.2034      1.00000
      8       6.0434      1.00000
      9      12.3809      0.00000
     10      15.0156      0.00000
     11      15.6173      0.00000
     12      17.3553      0.00000
     13      19.3218      0.00000
     14      20.8932      0.00000

 k-point     3 :       0.4167    0.0833    0.0833
  band No.  band energies     occupation 
      1      -7.6527      1.00000
      2      -6.2853      1.00000
      3      -5.3215      1.00000
      4      -4.1773      1.00000
      5       0.5806      1.00000
      6       1.2652      1.00000
      7       3.2603      1.00000
      8       6.0261      1.00000
      9      10.2363      0.00000
     10      11.5825      0.00000
     11      14.9380      0.00000
     12      17.1990      0.00000
     13      21.5384      0.00000
     14      22.4076      0.00000

 k-point     4 :      -0.4167    0.0833    0.0833
  band No.  band energies     occupation 
      1      -9.2375      1.00000
      2      -7.5776      1.00000
      3      -3.4204      1.00000
      4      -2.2678      1.00000
      5       0.9255      1.00000
      6       1.5850      1.00000
      7       1.6123      1.00000
      8       6.7148      1.00000
      9      10.3643      0.00000
     10      13.2583      0.00000
     11      15.1726      0.00000
     12      17.2765      0.00000
     13      20.4089      0.00000
     14      22.3518      0.00000

 k-point     5 :      -0.2500    0.0833    0.0833
  band No.  band energies     occupation 
      1     -11.5778      1.00000
      2      -9.7237      1.00000
      3      -1.1226      1.00000
      4       1.0655      1.00000
      5       1.6826      1.00000
      6       2.5995      1.00000
      7       3.0466      1.00000
      8       5.1911      1.00000
      9      14.7403      0.00000
     10      16.0696      0.00000
     11      16.7318      0.00000
     12      17.3277      0.00000
     13      18.4545      0.00000
     14      19.0113      0.00000

 k-point     6 :      -0.0833    0.0833    0.0833
  band No.  band energies     occupation 
      1     -12.6031      1.00000
      2     -10.6683      1.00000
      3      -2.3467      1.00000
      4       3.9909      1.00000
      5       4.2235      1.00000
      6       4.3296      1.00000
      7       4.3711      1.00000
      8       4.6673      1.00000
      9      15.9848      0.00000
     10      16.5025      0.00000
     11      16.7144      0.00000
     12      17.1751      0.00000
     13      17.3838      0.00000
     14      17.8962      0.00000

 k-point     7 :       0.2500    0.2500    0.0833
  band No.  band energies     occupation 
      1      -8.2697      1.00000
      2      -6.6994      1.00000
      3      -3.1416      1.00000
      4      -2.5775      1.00000
      5      -1.2346      1.00000
      6      -0.8442      1.00000
      7       2.7385      1.00000
      8       7.5742      1.00000
      9       9.2315      0.00000
     10      11.9090      0.00000
     11      19.2309      0.00000
     12      19.4912      0.00000
     13      20.5975      0.00000
     14      21.8943      0.00000

 k-point     8 :       0.4167    0.2500    0.0833
  band No.  band energies     occupation 
      1      -6.7416      1.00000
      2      -5.4533      1.00000
      3      -4.6106      1.00000
      4      -3.7408      1.00000
      5      -2.2016      1.00000
      6      -1.4534      1.00000
      7       4.3489      1.00000
      8       7.0856      1.00000
      9       8.6044      0.00000
     10      10.9946      0.00000
     11      19.0967      0.00000
     12      20.6702      0.00000
     13      21.0812      0.00000
     14      21.7774      0.00000

 k-point     9 :      -0.4167    0.2500    0.0833
  band No.  band energies     occupation 
      1      -9.5672      1.00000
      2      -7.8773      1.00000
      3      -2.1512      1.00000
      4      -1.3114      1.00000
      5       0.0684      1.00000
      6       0.6918      1.00000
      7       1.2473      1.00000
      8       6.7994      1.00000
      9      10.8901      0.00000
     10      13.3856      0.00000
     11      17.2376      0.00000
     12      18.9483      0.00000
     13      20.1241      0.00000
     14      20.2589      0.00000

 k-point    10 :      -0.2500    0.2500    0.0833
  band No.  band energies     occupation 
      1     -11.2386      1.00000
      2      -9.4110      1.00000
      3      -0.7214      1.00000
      4      -0.0395      1.00000
      5       0.8311      1.00000
      6       2.5362      1.00000
      7       3.0697      1.00000
      8       5.4844      1.00000
      9      13.7318      0.00000
     10      15.1134      0.00000
     11      16.2264      0.00000
     12      16.8413      0.00000
     13      18.7242      0.00000
     14      21.1687      0.00000

 k-point    11 :       0.4167    0.4167    0.0833
  band No.  band energies     occupation 
      1      -6.6983      1.00000
      2      -6.1250      1.00000
      3      -4.8932      1.00000
      4      -4.6105      1.00000
      5      -0.8471      1.00000
      6      -0.0057      1.00000
      7       4.1103      1.00000
      8       6.0541      1.00000
      9      10.0595      0.00000
     10      10.7971      0.00000
     11      16.7939      0.00000
     12      19.0655      0.00000
     13      21.2842      0.00000
     14      21.8310      0.00000

 k-point    12 :      -0.4167    0.4167    0.0833
  band No.  band energies     occupation 
      1      -8.5881      1.00000
      2      -6.9989      1.00000
      3      -4.5722      1.00000
      4      -3.3281      1.00000
      5       1.2845      1.00000
      6       1.8780      1.00000
      7       2.3116      1.00000
      8       6.4234      1.00000
      9      10.0781      0.00000
     10      12.6194      0.00000
     11      14.2712      0.00000
     12      16.5196      0.00000
     13      20.9690      0.00000
     14      23.0740      0.00000

 k-point    13 :       0.0833    0.0833    0.2500
  band No.  band energies     occupation 
      1     -12.0644      1.00000
      2     -10.6964      1.00000
      3      -1.1529      1.00000
      4       2.9704      1.00000
      5       3.2186      1.00000
      6       3.4679      1.00000
      7       3.7446      1.00000
      8       3.9307      1.00000
      9      16.0958      0.00000
     10      16.4840      0.00000
     11      17.1491      0.00000
     12      17.6705      0.00000
     13      18.0756      0.00000
     14      18.4559      0.00000

 k-point    14 :       0.2500    0.0833    0.2500
  band No.  band energies     occupation 
      1     -10.3789      1.00000
      2      -9.1028      1.00000
      3      -1.0605      1.00000
      4      -0.3832      1.00000
      5       0.8205      1.00000
      6       1.6736      1.00000
      7       2.1136      1.00000
      8       5.0877      1.00000
      9      12.6438      0.00000
     10      14.4879      0.00000
     11      15.9280      0.00000
     12      17.2871      0.00000
     13      20.4483      0.00000
     14      21.0970      0.00000

 k-point    15 :       0.4167    0.0833    0.2500
  band No.  band energies     occupation 
      1      -7.4886      1.00000
      2      -6.4665      1.00000
      3      -5.2548      1.00000
      4      -4.3909      1.00000
      5       0.6639      1.00000
      6       1.1647      1.00000
      7       3.8852      1.00000
      8       6.1753      1.00000
      9       9.6993      0.00000
     10      10.9725      0.00000
     11      15.2026      0.00000
     12      16.8728      0.00000
     13      21.4842      0.00000
     14      22.8451      0.00000

 k-point    16 :      -0.4167    0.0833    0.2500
  band No.  band energies     occupation 
      1      -9.0600      1.00000
      2      -7.8623      1.00000
      3      -3.2913      1.00000
      4      -2.4521      1.00000
      5       1.0049      1.00000
      6       1.4891      1.00000
      7       2.3027      1.00000
      8       6.0809      1.00000
      9      10.4876      0.00000
     10      12.6913      0.00000
     11      15.4507      0.00000
     12      17.0295      0.00000
     13      21.1257      0.00000
     14      22.5550      0.00000

 k-point    17 :      -0.2500    0.0833    0.2500
  band No.  band energies     occupation 
      1     -11.3861      1.00000
      2     -10.0546      1.00000
      3      -0.3627      1.00000
      4       1.1494      1.00000
      5       1.6130      1.00000
      6       2.6353      1.00000
      7       2.9705      1.00000
      8       4.1406      1.00000
      9      14.8587      0.00000
     10      15.9498      0.00000
     11      16.5859      0.00000
     12      17.6112      0.00000
     13      19.1011      0.00000
     14      19.6389      0.00000

 k-point    18 :      -0.0833    0.0833    0.2500
  band No.  band energies     occupation 
      1     -12.4055      1.00000
      2     -11.0192      1.00000
      3      -1.5531      1.00000
      4       3.1071      1.00000
      5       4.0434      1.00000
      6       4.3189      1.00000
      7       4.3741      1.00000
      8       4.6215      1.00000
      9      16.0207      0.00000
     10      16.4228      0.00000
     11      16.7626      0.00000
     12      17.0995      0.00000
     13      18.0753      0.00000
     14      18.8293      0.00000

 k-point    19 :       0.2500    0.2500    0.2500
  band No.  band energies     occupation 
      1      -8.0994      1.00000
      2      -6.9634      1.00000
      3      -3.0370      1.00000
      4      -2.6012      1.00000
      5      -1.2859      1.00000
      6      -0.9712      1.00000
      7       3.3995      1.00000
      8       6.9661      1.00000
      9       9.6162      0.00000
     10      11.4572      0.00000
     11      19.1618      0.00000
     12      19.4619      0.00000
     13      20.2652      0.00000
     14      21.6396      0.00000

 k-point    20 :       0.4167    0.2500    0.2500
  band No.  band energies     occupation 
      1      -6.5854      1.00000
      2      -5.6241      1.00000
      3      -4.5402      1.00000
      4      -3.8718      1.00000
      5      -2.1698      1.00000
      6      -1.6048      1.00000
      7       4.9632      1.00000
      8       7.2607      1.00000
      9       8.6381      0.00000
     10      10.2413      0.00000
     11      18.9633      0.00000
     12      19.3390      0.00000
     13      21.1012      0.00000
     14      21.6494      0.00000

 k-point    21 :      -0.4167    0.2500    0.2500
  band No.  band energies     occupation 
      1      -9.3878      1.00000
      2      -8.1694      1.00000
      3      -2.0418      1.00000
      4      -1.4185      1.00000
      5       0.1072      1.00000
      6       0.5765      1.00000
      7       1.9542      1.00000
      8       5.9648      1.00000
      9      11.2093      0.00000
     10      12.9964      0.00000
     11      17.4777      0.00000
     12      18.8609      0.00000
     13      20.1244      0.00000
     14      20.8547      0.00000

 k-point    22 :      -0.2500    0.2500    0.2500
  band No.  band energies     occupation 
      1     -11.0487      1.00000
      2      -9.7355      1.00000
      3      -0.0252      1.00000
      4       0.1124      1.00000
      5       0.7110      1.00000
      6       2.6043      1.00000
      7       2.9944      1.00000
      8       4.4626      1.00000
      9      13.8923      0.00000
     10      15.2431      0.00000
     11      15.7820      0.00000
     12      16.9698      0.00000
     13      20.0601      0.00000
     14      21.2157      0.00000

 k-point    23 :       0.4167    0.4167    0.2500
  band No.  band energies     occupation 
      1      -6.5480      1.00000
      2      -6.0510      1.00000
      3      -5.0864      1.00000
      4      -4.7919      1.00000
      5      -0.7540      1.00000
      6      -0.1371      1.00000
      7       4.7137      1.00000
      8       6.3417      1.00000
      9       9.8265      0.00000
     10      10.0033      0.00000
     11      16.9968      0.00000
     12      18.5914      0.00000
     13      20.4861      0.00000
     14      21.9519      0.00000

 k-point    24 :      -0.4167    0.4167    0.2500
  band No.  band energies     occupation 
      1      -8.4153      1.00000
      2      -7.2652      1.00000
      3      -4.4407      1.00000
      4      -3.5342      1.00000
      5       1.3597      1.00000
      6       1.7934      1.00000
[...]
      7       0.8600      1.00000
      8       2.9518      1.00000
      9       9.9236      0.00000
     10      10.7949      0.00000
     11      15.8063      0.00000
     12      15.9759      0.00000
     13      16.7457      0.00000
     14      18.4811      0.00000

 k-point    22 :      -0.2500    0.2500    0.2500
  band No.  band energies     occupation 
      1     -12.3956      1.00000
      2     -11.9138      1.00000
      3      -1.5609      1.00000
      4      -1.3634      1.00000
      5      -1.0398      1.00000
      6       0.8765      1.00000
      7       0.9857      1.00000
      8       1.2725      1.00000
      9      12.7046      0.00000
     10      13.5541      0.00000
     11      13.8800      0.00000
     12      14.1192      0.00000
     13      14.7361      0.00000
     14      19.4844      0.00000

 k-point    23 :       0.4167    0.4167    0.2500
  band No.  band energies     occupation 
      1      -8.0407      1.00000
      2      -7.8414      1.00000
      3      -6.9587      1.00000
      4      -6.8260      1.00000
      5      -2.3755      1.00000
      6      -2.1838      1.00000
      7       3.5764      1.00000
      8       4.4792      1.00000
      9       7.4421      0.00000
     10       7.7082      0.00000
     11      15.5501      0.00000
     12      16.2786      0.00000
     13      17.7520      0.00000
     14      18.4066      0.00000

 k-point    24 :      -0.4167    0.4167    0.2500
  band No.  band energies     occupation 
      1      -9.8249      1.00000
      2      -9.4176      1.00000
      3      -5.9487      1.00000
      4      -5.6430      1.00000
      5      -0.3452      1.00000
      6      -0.2266      1.00000
      7       1.8559      1.00000
      8       3.6056      1.00000
      9       8.1729      0.00000
     10       9.4308      0.00000
     11      13.1708      0.00000
     12      13.8056      0.00000
     13      17.1584      0.00000
     14      20.0354      0.00000

 k-point    25 :       0.0833    0.0833    0.4167
  band No.  band energies     occupation 
      1     -13.2389      1.00000
      2     -13.0535      1.00000
      3      -1.5394      1.00000
      4      -0.6660      1.00000
      5       1.2478      1.00000
      6       1.2741      1.00000
      7       1.9198      1.00000
      8       1.9405      1.00000
      9      14.4767      0.00000
     10      14.5844      0.00000
     11      15.1280      0.00000
     12      15.7732      0.00000
     13      15.8772      0.00000
     14      15.9979      0.00000

 k-point    26 :       0.2500    0.0833    0.4167
  band No.  band energies     occupation 
      1     -11.6023      1.00000
      2     -11.4328      1.00000
      3      -2.5907      1.00000
      4      -2.5107      1.00000
      5       0.0070      1.00000
      6       0.0531      1.00000
      7       0.3737      1.00000
      8       1.1787      1.00000
      9      11.6693      0.00000
     10      12.0215      0.00000
     11      14.5177      0.00000
     12      14.6823      0.00000
     13      16.5957      0.00000
     14      18.1675      0.00000

 k-point    27 :       0.4167    0.0833    0.4167
  band No.  band energies     occupation 
      1      -8.8182      1.00000
      2      -8.6859      1.00000
      3      -6.7043      1.00000
      4      -6.5950      1.00000
      5      -0.9648      1.00000
      6      -0.9117      1.00000
      7       3.2044      1.00000
      8       3.6966      1.00000
      9       7.6979      0.00000
     10       8.0612      0.00000
     11      14.0072      0.00000
     12      14.2503      0.00000
     13      18.5655      0.00000
     14      19.1388      0.00000

 k-point    28 :      -0.4167    0.0833    0.4167
  band No.  band energies     occupation 
      1     -10.3246      1.00000
      2     -10.1681      1.00000
      3      -4.7409      1.00000
      4      -4.6391      1.00000
      5      -0.6335      1.00000
      6      -0.5823      1.00000
      7       1.7907      1.00000
      8       2.5111      1.00000
      9       9.4192      0.00000
     10       9.8637      0.00000
     11      14.1935      0.00000
     12      14.4139      0.00000
     13      17.6378      0.00000
     14      18.8305      0.00000

 k-point    29 :      -0.2500    0.0833    0.4167
  band No.  band energies     occupation 
      1     -12.5799      1.00000
      2     -12.4009      1.00000
      3      -0.7666      1.00000
      4      -0.4875      1.00000
      5      -0.4320      1.00000
      6       0.0920      1.00000
      7       0.9056      1.00000
      8       0.9419      1.00000
      9      13.8098      0.00000
     10      14.0179      0.00000
     11      14.8771      0.00000
     12      14.9234      0.00000
     13      15.7631      0.00000
     14      17.3597      0.00000

 k-point    30 :      -0.0833    0.0833    0.4167
  band No.  band energies     occupation 
      1     -13.5703      1.00000
      2     -13.3818      1.00000
      3      -1.9335      1.00000
      4      -1.0495      1.00000
      5       2.2863      1.00000
      6       2.3146      1.00000
      7       2.6016      1.00000
      8       2.6257      1.00000
      9      14.2936      0.00000
     10      14.3652      0.00000
     11      14.7168      0.00000
     12      15.0282      0.00000
     13      15.0666      0.00000
     14      16.6035      0.00000

 k-point    31 :       0.2500    0.2500    0.4167
  band No.  band energies     occupation 
      1      -9.3961      1.00000
      2      -9.2495      1.00000
      3      -4.6058      1.00000
      4      -4.5514      1.00000
      5      -3.0385      1.00000
      6      -2.9982      1.00000
      7       2.8462      1.00000
      8       3.5287      1.00000
      9       8.5879      0.00000
     10       8.8949      0.00000
     11      16.7669      0.00000
     12      17.0106      0.00000
     13      18.4574      0.00000
     14      18.6965      0.00000

 k-point    32 :       0.4167    0.2500    0.4167
  band No.  band energies     occupation 
      1      -7.9478      1.00000
      2      -7.8259      1.00000
      3      -6.0568      1.00000
      4      -5.9716      1.00000
      5      -3.7652      1.00000
      6      -3.6976      1.00000
      7       4.3105      1.00000
      8       4.8160      1.00000
      9       7.0941      0.00000
     10       7.3669      0.00000
     11      16.4364      0.00000
     12      16.5558      0.00000
     13      18.5876      0.00000
     14      18.8715      0.00000

 k-point    33 :      -0.4167    0.2500    0.4167
  band No.  band energies     occupation 
      1     -10.6417      1.00000
      2     -10.4821      1.00000
      3      -3.5768      1.00000
      4      -3.5017      1.00000
      5      -1.5452      1.00000
      6      -1.4909      1.00000
      7       1.4694      1.00000
      8       2.2274      1.00000
      9      10.1944      0.00000
     10      10.5125      0.00000
     11      16.0864      0.00000
     12      16.2084      0.00000
     13      17.2488      0.00000
     14      18.1218      0.00000

 k-point    34 :      -0.2500    0.2500    0.4167
  band No.  band energies     occupation 
      1     -12.2524      1.00000
      2     -12.0766      1.00000
      3      -1.4995      1.00000
      4      -1.4281      1.00000
      5      -0.3780      1.00000
      6       0.4580      1.00000
      7       0.9087      1.00000
      8       0.9479      1.00000
      9      12.9301      0.00000
     10      13.2411      0.00000
     11      14.0593      0.00000
     12      14.2137      0.00000
     13      16.0373      0.00000
     14      17.8026      0.00000

 k-point    35 :       0.4167    0.4167    0.4167
  band No.  band energies     occupation 
      1      -7.9634      1.00000
      2      -7.8874      1.00000
      3      -6.9433      1.00000
      4      -6.8920      1.00000
      5      -2.3168      1.00000
      6      -2.2469      1.00000
      7       3.9661      1.00000
      8       4.3221      1.00000
      9       7.3259      0.00000
     10       7.4551      0.00000
     11      15.7142      0.00000
     12      15.9621      0.00000
     13      17.7945      0.00000
     14      18.1118      0.00000

 k-point    36 :      -0.4167    0.4167    0.4167
  band No.  band energies     occupation 
      1      -9.7023      1.00000
      2      -9.5537      1.00000
      3      -5.8561      1.00000
      4      -5.7444      1.00000
      5      -0.3069      1.00000
      6      -0.2637      1.00000
      7       2.3992      1.00000
      8       3.0388      1.00000
      9       8.4581      0.00000
     10       8.9282      0.00000
     11      13.3658      0.00000
     12      13.5989      0.00000
     13      18.3092      0.00000
     14      19.4447      0.00000


--------------------------------------------------------------------------------------------------------


 soft charge-density along one line, spin component           1
         0         1         2         3         4         5         6         7         8         9
 total charge-density along one line
 
 soft charge-density along one line, spin component           2
         0         1         2         3         4         5         6         7         8         9
 total charge-density along one line
 
 pseudopotential strength for first ion, spin component:           1
  9.704 -14.806  -0.000   0.000  -0.000  -0.000   0.000  -0.000
-14.806  25.357   0.000  -0.000   0.000   0.000  -0.000   0.000
 -0.000   0.000  -3.865  -0.000  -0.000   0.983   0.000   0.000
  0.000  -0.000  -0.000  -3.859   0.000   0.000   0.918  -0.000
 -0.000   0.000  -0.000   0.000  -3.865   0.000  -0.000   0.983
 -0.000   0.000   0.983   0.000   0.000  47.589  -0.000  -0.000
  0.000  -0.000   0.000   0.918  -0.000  -0.000  47.654   0.000
 -0.000   0.000   0.000  -0.000   0.983  -0.000   0.000  47.589
 pseudopotential strength for first ion, spin component:           2
  9.704 -14.806  -0.000   0.000  -0.000  -0.000   0.000  -0.000
-14.806  25.357   0.000  -0.000   0.000   0.000  -0.000   0.000
 -0.000   0.000  -3.865  -0.000  -0.000   0.983   0.000   0.000
  0.000  -0.000  -0.000  -3.859   0.000   0.000   0.918  -0.000
 -0.000   0.000  -0.000   0.000  -3.865   0.000  -0.000   0.983
 -0.000   0.000   0.983   0.000   0.000  47.589  -0.000  -0.000
  0.000  -0.000   0.000   0.918  -0.000  -0.000  47.654   0.000
 -0.000   0.000   0.000  -0.000   0.983  -0.000   0.000  47.589
 total augmentation occupancy for first ion, spin component:           1
  1.623   0.048   0.000   0.000   0.000  -0.000   0.000  -0.000
  0.048   0.002   0.000   0.000   0.000   0.000  -0.000   0.000
  0.000  -0.000   1.412  -0.000   0.000   0.066   0.000   0.000
  0.000  -0.000  -0.000   1.010   0.000   0.000   0.033  -0.000
  0.000   0.000   0.000   0.000   1.412   0.000   0.000   0.066
  0.000   0.000   0.066   0.000   0.000   0.003   0.000   0.000
  0.000  -0.000   0.000   0.033  -0.000   0.000   0.001  -0.000
 -0.000   0.000   0.000  -0.000   0.066   0.000  -0.000   0.003
 total augmentation occupancy for first ion, spin component:           2
 -0.000   0.000   0.000   0.000   0.000  -0.000   0.000   0.000
  0.000   0.000   0.000   0.000  -0.000   0.000   0.000   0.000
  0.000   0.000   0.000   0.000   0.000   0.000   0.000   0.000
  0.000   0.000  -0.000  -0.000   0.000  -0.000   0.000   0.000
  0.000   0.000   0.000   0.000   0.000   0.000   0.000   0.000
  0.000  -0.000   0.000   0.000   0.000   0.000   0.000   0.000
  0.000   0.000   0.000   0.000   0.000   0.000   0.000   0.000
  0.000   0.000   0.000   0.000   0.000   0.000   0.000   0.000


------------------------ aborting loop because EDIFF is reached ----------------------------------------





 total charge

# of ion       s       p       d       tot
------------------------------------------
    1        0.838   1.755   0.000   2.593
    2        0.838   1.755   0.000   2.593
    3        0.835   1.766   0.000   2.600
    4        0.835   1.766   0.000   2.600
--------------------------------------------------
tot          3.345   7.041   0.000  10.386



 magnetization (x)

# of ion       s       p       d       tot
------------------------------------------
    1        0.000   0.000   0.000   0.000
    2        0.000   0.000   0.000   0.000
    3        0.000   0.000   0.000   0.000
    4        0.000   0.000   0.000   0.000
--------------------------------------------------
tot          0.000   0.000   0.000   0.000
 
    CHARGE:  cpu time    0.0539: real time    0.0539
    FORLOC:  cpu time    0.0009: real time    0.0009
    FORNL :  cpu time    0.2874: real time    0.2877
    STRESS:  cpu time    0.8651: real time    0.8659
    FORHAR:  cpu time    0.0027: real time    0.0027
    MIXING:  cpu time    0.0009: real time    0.0009
    OFIELD:  cpu time    0.0000: real time    0.0000

 ---------------------------------------------------------------------------------------------

         DFTD3 V3.0 Rev 1        
 Edisp (eV)   -0.72146

 E6    (eV) :    -0.5140
 E8    (eV) :    -0.2075
 % E8        : 28.76
    FORVDW:  cpu time    0.0267: real time    0.0267

  FORCE on cell =-STRESS in cart. coord.  units (eV):
  Direction    XX          YY          ZZ          XY          YZ          ZX
  --------------------------------------------------------------------------------------
  Alpha Z    42.08708    42.08708    42.08708
  Ewald       5.94772     5.94773  -545.59544    -0.00000     0.00000    -0.00000
  Hartree   112.66822   112.66822   -90.40965     0.00000     0.00000    -0.00000
  E(xc)     -58.74782   -58.74782   -60.65356    -0.00000     0.00000     0.00000
  Local    -328.58798  -328.58792   392.15778     0.00000    -0.00000     0.00000
  n-local   -22.64819   -22.64090   -21.62094     0.40161     0.04354    -0.00154
  augment    -0.90746    -0.90754    -0.79604    -0.00000     0.00000     0.00000
  Kinetic   250.32077   250.15851   285.64169    -4.07768    -0.46040     0.02392
  Fock        0.00000     0.00000     0.00000     0.00000     0.00000     0.00000
  vdW         0.00913     0.00913    -0.74520    -0.00000     0.00000     0.00000
  -------------------------------------------------------------------------------------
  Total       0.06397     0.06397     0.06570    -0.00000    -0.00000     0.00000
  in kB       3.30899     3.30899     3.39830    -0.00000    -0.00000     0.00000
  external pressure =        3.34 kB  Pullay stress =        0.00 kB


 VOLUME and BASIS-vectors are now :
 -----------------------------------------------------------------------------
  energy-cutoff  :      500.00
  volume of cell :       30.98
      direct lattice vectors                 reciprocal lattice vectors
     1.229654822 -2.129824625 -0.000000000     0.406618175 -0.234761113 -0.000000000
     1.229654822  2.129824625 -0.000000000     0.406618175  0.234761113 -0.000000000
     0.000000000 -0.000000000  5.913792382     0.000000000 -0.000000000  0.169096231

  length of vectors
     2.459309642  2.459309642  5.913792382     0.469522226  0.469522226  0.169096231


 FORCES acting on ions
    electron-ion (+dipol)            ewald-force                    non-local-force                 convergence-correction
 -----------------------------------------------------------------------------------------------
   0.227E-14 -.121E-05 0.320E-13   0.139E-13 0.272E-05 -.165E-13   0.741E-16 -.433E-16 0.434E-18   -.231E-14 0.313E-08 -.520E-13
   -.227E-14 0.121E-05 0.978E-13   -.883E-14 -.272E-05 0.165E-13   -.500E-17 -.157E-16 -.434E-18   0.217E-14 -.313E-08 0.257E-13
   0.423E-13 -.149E-05 -.148E-12   -.148E-13 -.274E-05 -.165E-13   0.829E-17 0.175E-16 0.271E-18   0.200E-14 -.247E-08 -.516E-13
   0.590E-13 0.149E-05 0.225E-12   0.910E-14 0.274E-05 0.165E-13   -.218E-16 -.735E-17 -.163E-18   -.180E-14 0.247E-08 0.267E-13
 -----------------------------------------------------------------------------------------------
   0.101E-12 0.183E-12 0.206E-12   -.586E-15 0.194E-14 -.393E-19   0.556E-16 -.489E-16 0.108E-18   0.618E-16 -.198E-14 -.512E-13
 
 
 POSITION                                       TOTAL-FORCE (eV/Angst)
 -----------------------------------------------------------------------------------
      0.00000     -0.00000      1.47845         0.000000      0.000000      0.000000
      0.00000     -0.00000      4.43534        -0.000000      0.000000      0.000000
      1.22965      0.70994      1.47845         0.000000     -0.000000     -0.000000
      1.22965     -0.70994      4.43534        -0.000000      0.000000     -0.000000
 -----------------------------------------------------------------------------------
    total drift:                                0.000000      0.000000      0.000000


--------------------------------------------------------------------------------------------------------



  FREE ENERGIE OF THE ION-ELECTRON SYSTEM (eV)
  ---------------------------------------------------
  free  energy   TOTEN  =       -37.30267719 eV

  energy  without entropy=      -37.30267719  energy(sigma->0) =      -37.30267719
 
 d Force = 0.0000000E+00[ 0.000E+00, 0.000E+00]  d Energy = 0.4984236E-03-0.498E-03
 d Force = 0.0000000E+00[ 0.000E+00, 0.000E+00]  d Ewald  =-0.1644091E+01 0.164E+01


--------------------------------------------------------------------------------------------------------


    POTLOK:  cpu time    0.0439: real time    0.0440


--------------------------------------------------------------------------------------------------------


 Conjugate gradient step on ions:
 trial-energy change:   -0.000498  1 .order   -0.000521   -0.000813   -0.000229
  (g-gl).g = 0.639E-02      g.g   = 0.639E-03  gl.gl    = 0.189E+00
 g(Force)  = 0.130E-44   g(Stress)= 0.639E-03 ortho     = 0.127E-05
 gamma     =   0.03383
 trial     =   1.27263
 opt step  =   2.08663  (harmonic =   1.77231) maximal distance =0.00000000
 next E    =   -37.302745   (d E  =  -0.00057)


--------------------------------------------------------------------------------------------------------


  
 reached required accuracy - stopping structural energy minimisation
     LOOP+:  cpu time    7.4997: real time    7.5230
    4ORBIT:  cpu time    0.0001: real time    0.0008



 total charge

# of ion       s       p       d       tot
------------------------------------------
    1        0.838   1.755   0.000   2.593
    2        0.838   1.755   0.000   2.593
    3        0.835   1.766   0.000   2.600
    4        0.835   1.766   0.000   2.600
--------------------------------------------------
tot          3.345   7.041   0.000  10.386



 magnetization (x)

# of ion       s       p       d       tot
------------------------------------------
    1        0.000   0.000   0.000   0.000
    2        0.000   0.000   0.000   0.000
    3        0.000   0.000   0.000   0.000
    4        0.000   0.000   0.000   0.000
--------------------------------------------------
tot          0.000   0.000   0.000   0.000
 

 total amount of memory used by VASP MPI-rank0    47180. kBytes
=======================================================================

   base      :      30000. kBytes
   nonlr-proj:        359. kBytes
   fftplans  :       1540. kBytes
   grid      :       3694. kBytes
   one-center:         24. kBytes
   wavefun   :      11563. kBytes
 
  
  
 General timing and accounting informations for this job:
 ========================================================
  
                  Total CPU time used (sec):       95.932
                            User time (sec):       95.788
                          System time (sec):        0.144
                         Elapsed time (sec):       96.673
  
                   Maximum memory used (kb):      101640.
                   Average memory used (kb):          N/A
  
                          Minor page faults:        23721
                          Major page faults:          407
                 Voluntary context switches:         1451
